 Gaussian 09, Revision D.01,
 Gaussian 09:  ES64L-G09RevD.01 24-Apr-2013

 -------------------
 #N B3LYP/STO-3G OPT
 -------------------

 -----
 1Naph
 -----
 Symbolic Z-matrix:
 Charge = -1 Multiplicity = 1

 SCF Done:  E(RB3LYP) =  -562.481338937     A.U. after   23 cycles
 SCF Done:  E(RB3LYP) =  -562.511364689     A.U. after   22 cycles
 SCF Done:  E(RB3LYP) =  -562.515043535     A.U. after   16 cycles
 SCF Done:  E(RB3LYP) =  -562.513368967     A.U. after   18 cycles
 SCF Done:  E(RB3LYP) =  -562.515234159     A.U. after   11 cycles
 SCF Done:  E(RB3LYP) =  -562.515369789     A.U. after   15 cycles
 SCF Done:  E(RB3LYP) =  -562.515384167     A.U. after   14 cycles
 SCF Done:  E(RB3LYP) =  -562.515387899     A.U. after   14 cycles
 Optimization completed.
    -- Stationary point found.

                         Standard orientation:
 ---------------------------------------------------------------------
 Center     Atomic      Atomic             Coordinates (Angstroms)
 Number     Number       Type             X           Y           Z
 ---------------------------------------------------------------------
      1          7           0       -3.521782   -2.366594    0.000268
      2          6           0       -2.813590   -1.397730    0.000121
      3          6           0       -2.002639   -0.179089    0.000115
      4          6           0       -2.664906    1.057914    0.000249
      5          6           0       -1.927511    2.276490    0.000287
      6          6           0       -0.535978    2.242583    0.000141
      7          6           0        0.182868    1.002658   -0.000048
      8          6           0       -0.541485   -0.263699   -0.000084
      9          6           0        0.196207   -1.489983   -0.000549
     10          6           0        1.616578   -1.667416   -0.000681
     11          6           0        2.246098   -0.321460   -0.000211
     12          6           0        1.613651    0.932758   -0.000193
     13          7           0        4.929396   -0.268107    0.000378
     14          6           0        3.730071   -0.282919    0.000140
     15          1           0       -3.762995    1.085736    0.000316
     16          1           0       -2.464734    3.232734    0.000416
     17          1           0        0.037126    3.181049    0.000172
     18          1           0       -0.444024   -2.390556   -0.000929
     19          1           0        2.185142    1.873310   -0.000206
 ---------------------------------------------------------------------

 The electronic state is 1-A.
 Alpha  occ. eigenvalues --  -13.99065 -13.94742  -9.90609  -9.89556  -9.89070
 Alpha  occ. eigenvalues --   -9.88378  -9.87841  -9.86890  -9.86698  -9.85305
 Alpha  occ. eigenvalues --   -9.85060  -9.84638  -9.79110  -9.67260  -0.72484
 Alpha  occ. eigenvalues --   -0.68942  -0.67877  -0.61756  -0.59188  -0.54501
 Alpha  occ. eigenvalues --   -0.50969  -0.45818  -0.41822  -0.40775  -0.34711
 Alpha  occ. eigenvalues --   -0.33086  -0.30367  -0.27947  -0.25018  -0.23344
 Alpha  occ. eigenvalues --   -0.22034  -0.20866  -0.19430  -0.17361  -0.16294
 Alpha  occ. eigenvalues --   -0.15248  -0.14192  -0.13418  -0.13229  -0.10949
 Alpha  occ. eigenvalues --   -0.10208  -0.08349  -0.07659  -0.01989   0.01312
 Alpha  occ. eigenvalues --    0.11071
 Alpha virt. eigenvalues --    0.15919   0.22361   0.24023   0.25951   0.30174
 Alpha virt. eigenvalues --    0.31217   0.32549   0.38273   0.43322   0.45850
 Alpha virt. eigenvalues --    0.46112   0.49521   0.51825   0.55397   0.56687

 Mulliken charges:
               1
     1  N   -0.235738
     2  C    0.053800
     3  C   -0.028882
     4  C   -0.084304
     5  C   -0.108207
     6  C   -0.083019
     7  C   -0.028313
     8  C   -0.012250
     9  C   -0.144550
    10  C   -0.203230
    11  C   -0.054012
    12  C   -0.096508
    13  N   -0.269226
    14  C    0.042906
    15  H    0.062691
    16  H    0.053501
    17  H    0.058669
    18  H    0.027925
    19  H    0.048746
 Sum of Mulliken charges =  -1.00000

 Dipole moment (field-independent basis, Debye):
    X=             -5.1701    Y=              6.4304    Z=              0.0006  Tot=              8.2510
 Quadrupole moment (field-independent basis, Debye-Ang):
   XX=           -128.2380   YY=            -90.1651   ZZ=            -74.1626
   XY=             -1.2782   XZ=              0.0009   YZ=             -0.0028

 Normal termination of Gaussian 09 at Tue Jun 15 11:17:59 2021.
