 Gaussian 09, Revision D.01,
 Gaussian 09:  ES64L-G09RevD.01 24-Apr-2013

 -------------------
 #N B3LYP/STO-3G OPT
 -------------------

 -----
 2Naph
 -----
 Symbolic Z-matrix:
 Charge = -1 Multiplicity = 1

 SCF Done:  E(RB3LYP) =  -562.473949229     A.U. after   29 cycles
 SCF Done:  E(RB3LYP) =  -562.506340078     A.U. after   19 cycles
 SCF Done:  E(RB3LYP) =  -562.509869741     A.U. after   13 cycles
 SCF Done:  E(RB3LYP) =  -562.509506296     A.U. after   16 cycles
 SCF Done:  E(RB3LYP) =  -562.509947552     A.U. after   10 cycles
 SCF Done:  E(RB3LYP) =  -562.510044005     A.U. after   15 cycles
 SCF Done:  E(RB3LYP) =  -562.510063029     A.U. after   10 cycles
 SCF Done:  E(RB3LYP) =  -562.510063732     A.U. after    9 cycles
 SCF Done:  E(RB3LYP) =  -562.510063775     A.U. after   12 cycles
 SCF Done:  E(RB3LYP) =  -562.510064043     A.U. after    9 cycles
 Optimization completed.
    -- Stationary point found.

                         Standard orientation:
 ---------------------------------------------------------------------
 Center     Atomic      Atomic             Coordinates (Angstroms)
 Number     Number       Type             X           Y           Z
 ---------------------------------------------------------------------
      1          7           0       -4.528165   -0.876316   -0.000141
      2          6           0       -3.350429   -0.645317    0.000079
      3          6           0       -0.970092   -1.409650    0.000018
      4          6           0       -1.920211   -0.362396    0.000039
      5          6           0       -1.464946    0.998792    0.000037
      6          6           0       -0.094958    1.279197    0.000007
      7          6           0        0.898346    0.204503   -0.000040
      8          6           0        0.445408   -1.198842    0.000006
      9          6           0        1.311261   -2.410741    0.000051
     10          6           0        2.683455   -1.983021    0.000071
     11          6           0        3.167772   -0.648515   -0.000063
     12          6           0        2.295489    0.450861   -0.000115
     13          7           0        0.686877    3.825479    0.000045
     14          6           0        0.334503    2.678120    0.000034
     15          1           0       -1.325081   -2.451898    0.000043
     16          1           0       -2.197466    1.816901    0.000076
     17          1           0        3.472757   -2.756881    0.000146
     18          1           0        4.252624   -0.450601   -0.000143
     19          1           0        2.672599    1.480388   -0.000196
 ---------------------------------------------------------------------

 The electronic state is 1-A.
 Alpha  occ. eigenvalues --  -13.99046 -13.99008  -9.90473  -9.90206  -9.89610
 Alpha  occ. eigenvalues --   -9.89559  -9.89390  -9.87703  -9.86506  -9.83905
 Alpha  occ. eigenvalues --   -9.82877  -9.82871  -9.78625  -9.66484  -0.72724
 Alpha  occ. eigenvalues --   -0.72501  -0.67283  -0.61424  -0.58689  -0.54216
 Alpha  occ. eigenvalues --   -0.50185  -0.45050  -0.43248  -0.39326  -0.34783
 Alpha  occ. eigenvalues --   -0.31202  -0.30165  -0.28977  -0.25370  -0.22935
 Alpha  occ. eigenvalues --   -0.21277  -0.19602  -0.18475  -0.17645  -0.16469
 Alpha  occ. eigenvalues --   -0.15834  -0.14687  -0.14320  -0.14223  -0.13261
 Alpha  occ. eigenvalues --   -0.10549  -0.08926  -0.06636  -0.02917   0.02431
 Alpha  occ. eigenvalues --    0.11323
 Alpha virt. eigenvalues --    0.16846   0.19438   0.25139   0.26370   0.27121
 Alpha virt. eigenvalues --    0.28523   0.33792   0.37731   0.41884   0.45745
 Alpha virt. eigenvalues --    0.46096   0.50751   0.53730   0.54170   0.57823

 Mulliken charges:
               1
     1  N   -0.243100
     2  C    0.044771
     3  C   -0.056060
     4  C   -0.048450
     5  C   -0.073884
     6  C   -0.032596
     7  C   -0.014925
     8  C   -0.049025
     9  C   -0.212856
    10  C   -0.148930
    11  C   -0.094641
    12  C   -0.127230
    13  N   -0.240244
    14  C    0.049726
    15  H    0.078974
    16  H    0.070942
    17  H    0.013510
    18  H    0.036967
    19  H    0.047054
 Sum of Mulliken charges =  -1.00000

 Dipole moment (field-independent basis, Debye):
    X=             -0.1871    Y=              2.4256    Z=              0.0002  Tot=              2.4328
 Quadrupole moment (field-independent basis, Debye-Ang):
   XX=           -108.7703   YY=           -109.0415   ZZ=            -74.1551
   XY=             -0.8497   XZ=             -0.0016   YZ=             -0.0003

 Normal termination of Gaussian 09 at Tue Jun 15 11:13:30 2021.
