 Gaussian 09, Revision D.01,
 Gaussian 09:  ES64L-G09RevD.01 24-Apr-2013

 -------------------
 #N B3LYP/STO-3G OPT
 -------------------

 -----
 1Naph
 -----
 Symbolic Z-matrix:
 Charge = -1 Multiplicity = 1

 SCF Done:  E(RB3LYP) =  -562.472362559     A.U. after   31 cycles
 SCF Done:  E(RB3LYP) =  -562.502387838     A.U. after   19 cycles
 SCF Done:  E(RB3LYP) =  -562.505115128     A.U. after   17 cycles
 SCF Done:  E(RB3LYP) =  -562.503912535     A.U. after   20 cycles
 SCF Done:  E(RB3LYP) =  -562.505349099     A.U. after   13 cycles
 SCF Done:  E(RB3LYP) =  -562.505573161     A.U. after   17 cycles
 SCF Done:  E(RB3LYP) =  -562.505635502     A.U. after   18 cycles
 SCF Done:  E(RB3LYP) =  -562.505605179     A.U. after   17 cycles
 SCF Done:  E(RB3LYP) =  -562.505653601     A.U. after   16 cycles
 SCF Done:  E(RB3LYP) =  -562.505655820     A.U. after   14 cycles
 SCF Done:  E(RB3LYP) =  -562.505656484     A.U. after   13 cycles
 SCF Done:  E(RB3LYP) =  -562.505656590     A.U. after   10 cycles
 Optimization completed.
    -- Stationary point found.

                         Standard orientation:
 ---------------------------------------------------------------------
 Center     Atomic      Atomic             Coordinates (Angstroms)
 Number     Number       Type             X           Y           Z
 ---------------------------------------------------------------------
      1          7           0        1.807942    2.897884    0.009862
      2          6           0        1.334813    1.793937    0.003413
      3          6           0        0.731383    0.464009   -0.028469
      4          6           0        1.573534   -0.682045   -0.009836
      5          6           0        0.989204   -1.991507    0.012804
      6          6           0       -0.395929   -2.132495    0.010274
      7          6           0       -1.318982   -1.024902   -0.018678
      8          6           0       -0.714452    0.319570   -0.042630
      9          6           0       -1.592438    1.446255   -0.020462
     10          6           0       -2.967722    1.216295    0.039180
     11          6           0       -3.502025   -0.107422    0.030349
     12          6           0       -2.767360   -1.330085   -0.031808
     13          7           0        4.224603   -0.463664    0.016557
     14          6           0        3.026849   -0.542893    0.004493
     15          1           0        1.652421   -2.865003    0.036017
     16          1           0       -0.832169   -3.142255    0.040741
     17          1           0       -1.178795    2.461414   -0.041153
     18          1           0       -3.643779    2.087024    0.055889
     19          1           0       -4.606744   -0.153025    0.031798
 ---------------------------------------------------------------------

 The electronic state is 1-A.
 Alpha  occ. eigenvalues --  -13.99945 -13.99029  -9.91675  -9.90964  -9.90288
 Alpha  occ. eigenvalues --   -9.89424  -9.87288  -9.86438  -9.86329  -9.83591
 Alpha  occ. eigenvalues --   -9.82847  -9.82737  -9.78578  -9.66253  -0.73299
 Alpha  occ. eigenvalues --   -0.72194  -0.67151  -0.61224  -0.58241  -0.54315
 Alpha  occ. eigenvalues --   -0.49717  -0.45840  -0.41991  -0.39539  -0.33815
 Alpha  occ. eigenvalues --   -0.32902  -0.30014  -0.27401  -0.24753  -0.22939
 Alpha  occ. eigenvalues --   -0.21726  -0.19901  -0.18290  -0.16593  -0.16179
 Alpha  occ. eigenvalues --   -0.16006  -0.15046  -0.14503  -0.13720  -0.13218
 Alpha  occ. eigenvalues --   -0.10774  -0.09062  -0.06184  -0.02740   0.02554
 Alpha  occ. eigenvalues --    0.11557
 Alpha virt. eigenvalues --    0.15433   0.21166   0.24873   0.26201   0.27645
 Alpha virt. eigenvalues --    0.29390   0.31767   0.38392   0.41147   0.46003
 Alpha virt. eigenvalues --    0.47007   0.50922   0.52833   0.56453   0.58342

 Mulliken charges:
               1
     1  N   -0.231406
     2  C    0.051200
     3  C   -0.020756
     4  C   -0.022023
     5  C   -0.102321
     6  C   -0.074958
     7  C   -0.042703
     8  C   -0.015940
     9  C   -0.125795
    10  C   -0.097169
    11  C   -0.146540
    12  C   -0.217859
    13  N   -0.229600
    14  C    0.050180
    15  H    0.059760
    16  H    0.068652
    17  H    0.048016
    18  H    0.036514
    19  H    0.012747
 Sum of Mulliken charges =  -1.00000

 Dipole moment (field-independent basis, Debye):
    X=              1.1890    Y=             -0.2210    Z=              0.1071  Tot=              1.2141
 Quadrupole moment (field-independent basis, Debye-Ang):
   XX=           -123.1426   YY=            -90.2578   ZZ=            -74.2197
   XY=            -13.6550   XZ=             -0.4702   YZ=             -0.4117

 Normal termination of Gaussian 09 at Tue Jun 15 11:18:57 2021.
