 Gaussian 09, Revision D.01,
 Gaussian 09:  ES64L-G09RevD.01 24-Apr-2013

 -------------------
 #N B3LYP/STO-3G OPT
 -------------------

 -----
 2Naph
 -----
 Symbolic Z-matrix:
 Charge = -1 Multiplicity = 1

 SCF Done:  E(RB3LYP) =  -562.470295808     A.U. after   33 cycles
 SCF Done:  E(RB3LYP) =  -562.503729624     A.U. after   21 cycles
 SCF Done:  E(RB3LYP) =  -562.507635073     A.U. after   14 cycles
 SCF Done:  E(RB3LYP) =  -562.507257214     A.U. after   16 cycles
 SCF Done:  E(RB3LYP) =  -562.507715758     A.U. after   10 cycles
 SCF Done:  E(RB3LYP) =  -562.507801610     A.U. after   13 cycles
 SCF Done:  E(RB3LYP) =  -562.507824692     A.U. after   10 cycles
 SCF Done:  E(RB3LYP) =  -562.507825577     A.U. after   10 cycles
 SCF Done:  E(RB3LYP) =  -562.507825636     A.U. after   12 cycles
 SCF Done:  E(RB3LYP) =  -562.507825768     A.U. after   12 cycles
 Optimization completed.
    -- Stationary point found.

                         Standard orientation:
 ---------------------------------------------------------------------
 Center     Atomic      Atomic             Coordinates (Angstroms)
 Number     Number       Type             X           Y           Z
 ---------------------------------------------------------------------
      1          7           0        3.590430   -2.094964   -0.000478
      2          6           0        2.565148   -1.470520    0.000277
      3          6           0        0.077025   -1.416200    0.000157
      4          6           0        1.306892   -0.736529    0.000160
      5          6           0        1.305926    0.722757    0.000052
      6          6           0        0.086737    1.406300   -0.000031
      7          6           0       -1.172278    0.709142   -0.000023
      8          6           0       -1.205171   -0.762602    0.000069
      9          6           0       -2.414644   -1.624170    0.000069
     10          6           0       -3.569192   -0.768462   -0.000029
     11          6           0       -3.597161    0.656016   -0.000098
     12          6           0       -2.417082    1.406109   -0.000101
     13          7           0        3.582380    2.099298    0.000043
     14          6           0        2.563308    1.465644    0.000047
     15          1           0        0.081153   -2.516986    0.000224
     16          1           0        0.092865    2.506254   -0.000099
     17          1           0       -4.569561   -1.240250   -0.000050
     18          1           0       -4.560281    1.192680   -0.000156
     19          1           0       -2.430890    2.503063   -0.000164
 ---------------------------------------------------------------------

 The electronic state is 1-A.
 Alpha  occ. eigenvalues --  -13.99975 -13.98916  -9.91597  -9.90459  -9.90342
 Alpha  occ. eigenvalues --   -9.89430  -9.88411  -9.87351  -9.86116  -9.83881
 Alpha  occ. eigenvalues --   -9.83229  -9.82801  -9.78830  -9.66147  -0.73321
 Alpha  occ. eigenvalues --   -0.72234  -0.67326  -0.61635  -0.58204  -0.54636
 Alpha  occ. eigenvalues --   -0.50477  -0.44398  -0.43714  -0.38961  -0.34436
 Alpha  occ. eigenvalues --   -0.33747  -0.30178  -0.25891  -0.25685  -0.24016
 Alpha  occ. eigenvalues --   -0.21728  -0.20111  -0.18192  -0.16650  -0.16174
 Alpha  occ. eigenvalues --   -0.15811  -0.15365  -0.15286  -0.14168  -0.13344
 Alpha  occ. eigenvalues --   -0.10031  -0.08957  -0.07031  -0.02814   0.02390
 Alpha  occ. eigenvalues --    0.11542
 Alpha virt. eigenvalues --    0.17229   0.18424   0.25028   0.25903   0.28457
 Alpha virt. eigenvalues --    0.29148   0.31461   0.38547   0.41083   0.45688
 Alpha virt. eigenvalues --    0.46953   0.50854   0.53107   0.54540   0.58002

 Mulliken charges:
               1
     1  N   -0.235646
     2  C    0.046941
     3  C   -0.060815
     4  C   -0.039270
     5  C   -0.026336
     6  C   -0.077611
     7  C   -0.024430
     8  C   -0.046647
     9  C   -0.219045
    10  C   -0.144472
    11  C   -0.099220
    12  C   -0.123015
    13  N   -0.229971
    14  C    0.050646
    15  H    0.078793
    16  H    0.064349
    17  H    0.013163
    18  H    0.035119
    19  H    0.037466
 Sum of Mulliken charges =  -1.00000

 Dipole moment (field-independent basis, Debye):
    X=             -0.5973    Y=              3.4415    Z=              0.0007  Tot=              3.4929
 Quadrupole moment (field-independent basis, Debye-Ang):
   XX=           -127.0183   YY=            -91.7689   ZZ=            -74.1570
   XY=             -8.8424   XZ=              0.0035   YZ=             -0.0019

 Normal termination of Gaussian 09 at Tue Jun 15 11:13:00 2021.
