 Gaussian 09, Revision D.01,
 Gaussian 09:  ES64L-G09RevD.01 24-Apr-2013

 -------------------
 #N B3LYP/STO-3G OPT
 -------------------

 -----
 1Naph
 -----
 Symbolic Z-matrix:
 Charge = -1 Multiplicity = 1

 SCF Done:  E(RB3LYP) =  -562.478554852     A.U. after   26 cycles
 SCF Done:  E(RB3LYP) =  -562.507460105     A.U. after   20 cycles
 SCF Done:  E(RB3LYP) =  -562.511067798     A.U. after   14 cycles
 SCF Done:  E(RB3LYP) =  -562.510985050     A.U. after   14 cycles
 SCF Done:  E(RB3LYP) =  -562.511166507     A.U. after    9 cycles
 SCF Done:  E(RB3LYP) =  -562.511032032     A.U. after   14 cycles
 SCF Done:  E(RB3LYP) =  -562.511270586     A.U. after    8 cycles
 SCF Done:  E(RB3LYP) =  -562.511286031     A.U. after   12 cycles
 SCF Done:  E(RB3LYP) =  -562.511296608     A.U. after   12 cycles
 SCF Done:  E(RB3LYP) =  -562.511297399     A.U. after    9 cycles
 SCF Done:  E(RB3LYP) =  -562.511297250     A.U. after   12 cycles
 SCF Done:  E(RB3LYP) =  -562.511297473     A.U. after   11 cycles
 Optimization completed.
    -- Stationary point found.

                         Standard orientation:
 ---------------------------------------------------------------------
 Center     Atomic      Atomic             Coordinates (Angstroms)
 Number     Number       Type             X           Y           Z
 ---------------------------------------------------------------------
      1          7           0       -3.216166    1.485527   -0.000147
      2          6           0       -2.036280    1.262685    0.000000
      3          6           0       -0.571482    1.201405    0.000074
      4          6           0        0.079864    2.451494    0.000217
      5          6           0        1.494409    2.541982    0.000294
      6          6           0        2.251659    1.372171    0.000225
      7          6           0        1.636303    0.082770    0.000082
      8          6           0        0.184818   -0.045990    0.000005
      9          6           0       -0.359189   -1.396966   -0.000122
     10          6           0        0.355469   -2.643148   -0.000205
     11          6           0        1.808852   -2.368595   -0.000150
     12          6           0        2.422897   -1.129451    0.000003
     13          7           0       -2.991733   -1.859888   -0.000190
     14          6           0       -1.826827   -1.568884   -0.000160
     15          1           0       -0.525843    3.367684    0.000269
     16          1           0        1.978076    3.526378    0.000404
     17          1           0        3.349639    1.426401    0.000280
     18          1           0        2.492212   -3.239356   -0.000226
     19          1           0        3.518267   -1.017438    0.000062
 ---------------------------------------------------------------------

 The electronic state is 1-A.
 Alpha  occ. eigenvalues --  -13.98290 -13.92209  -9.90524  -9.88743  -9.88718
 Alpha  occ. eigenvalues --   -9.88132  -9.87748  -9.87437  -9.86928  -9.84222
 Alpha  occ. eigenvalues --   -9.82986  -9.82259  -9.81430  -9.67595  -0.71543
 Alpha  occ. eigenvalues --   -0.67848  -0.66370  -0.61344  -0.59053  -0.53472
 Alpha  occ. eigenvalues --   -0.51904  -0.45009  -0.42001  -0.40196  -0.35354
 Alpha  occ. eigenvalues --   -0.31951  -0.29651  -0.28039  -0.25599  -0.23512
 Alpha  occ. eigenvalues --   -0.21417  -0.20667  -0.18806  -0.17517  -0.15274
 Alpha  occ. eigenvalues --   -0.14375  -0.12849  -0.12831  -0.12411  -0.09969
 Alpha  occ. eigenvalues --   -0.08875  -0.06618  -0.06463  -0.02489   0.01687
 Alpha  occ. eigenvalues --    0.11018
 Alpha virt. eigenvalues --    0.16692   0.22492   0.24516   0.26171   0.30880
 Alpha virt. eigenvalues --    0.32785   0.35139   0.37737   0.44015   0.46382
 Alpha virt. eigenvalues --    0.47290   0.49538   0.52813   0.54735   0.57119

 Mulliken charges:
               1
     1  N   -0.224315
     2  C    0.055914
     3  C   -0.027264
     4  C   -0.082783
     5  C   -0.108034
     6  C   -0.085125
     7  C   -0.024579
     8  C   -0.006389
     9  C   -0.083290
    10  C   -0.195263
    11  C   -0.117995
    12  C   -0.106133
    13  N   -0.269043
    14  C    0.035522
    15  H    0.064476
    16  H    0.053804
    17  H    0.056840
    18  H    0.025600
    19  H    0.038058
 Sum of Mulliken charges =  -1.00000

 Dipole moment (field-independent basis, Debye):
    X=              5.9117    Y=              6.2501    Z=              0.0008  Tot=              8.6030
 Quadrupole moment (field-independent basis, Debye-Ang):
   XX=           -103.4771   YY=            -98.6402   ZZ=            -74.1580
   XY=             -1.4295   XZ=             -0.0016   YZ=             -0.0015

 Normal termination of Gaussian 09 at Tue Jun 15 11:19:01 2021.
