 Gaussian 09, Revision D.01,
 Gaussian 09:  ES64L-G09RevD.01 24-Apr-2013

 -------------------
 #N B3LYP/STO-3G OPT
 -------------------

 -----
 2Naph
 -----
 Symbolic Z-matrix:
 Charge = -1 Multiplicity = 1

 SCF Done:  E(RB3LYP) =  -562.268991887     A.U. after   26 cycles
 SCF Done:  E(RB3LYP) =  -562.367582410     A.U. after   20 cycles
 SCF Done:  E(RB3LYP) =  -562.448831038     A.U. after   20 cycles
 SCF Done:  E(RB3LYP) =  -562.485404290     A.U. after   19 cycles
 SCF Done:  E(RB3LYP) =  -562.505739907     A.U. after   20 cycles
 SCF Done:  E(RB3LYP) =  -562.512006616     A.U. after   19 cycles
 SCF Done:  E(RB3LYP) =  -562.513225875     A.U. after   18 cycles
 SCF Done:  E(RB3LYP) =  -562.513392115     A.U. after   18 cycles
 SCF Done:  E(RB3LYP) =  -562.513467504     A.U. after   17 cycles
 SCF Done:  E(RB3LYP) =  -562.513497353     A.U. after   16 cycles
 SCF Done:  E(RB3LYP) =  -562.513504970     A.U. after   15 cycles
 SCF Done:  E(RB3LYP) =  -562.513507693     A.U. after   13 cycles
 SCF Done:  E(RB3LYP) =  -562.513508352     A.U. after   12 cycles
 SCF Done:  E(RB3LYP) =  -562.513508462     A.U. after   11 cycles
 Optimization completed.
    -- Stationary point found.

                         Standard orientation:
 ---------------------------------------------------------------------
 Center     Atomic      Atomic             Coordinates (Angstroms)
 Number     Number       Type             X           Y           Z
 ---------------------------------------------------------------------
      1          7           0        4.902403    0.303932    0.003089
      2          6           0        3.703712    0.238415   -0.001693
      3          6           0        1.573926   -1.022155   -0.001315
      4          6           0        2.236569    0.218312   -0.001305
      5          6           0        1.492807    1.461140   -0.000421
      6          6           0        0.076069    1.605426   -0.000123
      7          6           0       -0.540096    0.262207   -0.000188
      8          6           0        0.144783   -1.028732   -0.000381
      9          6           0       -0.617666   -2.253001    0.000264
     10          6           0       -2.006371   -2.238320    0.000562
     11          6           0       -2.712704   -0.998252    0.000400
     12          6           0       -1.993450    0.205388    0.000083
     13          7           0       -3.421538    2.461311    0.000270
     14          6           0       -2.718729    1.487697    0.000225
     15          1           0        2.132841   -1.965821   -0.002205
     16          1           0        2.130243    2.363031   -0.000012
     17          1           0       -0.079940   -3.212435    0.000486
     18          1           0       -2.571939   -3.179422    0.000978
     19          1           0       -3.810356   -0.990804    0.000586
 ---------------------------------------------------------------------

 The electronic state is 1-A.
 Alpha  occ. eigenvalues --  -13.96917 -13.96777  -9.89285  -9.87696  -9.87606
 Alpha  occ. eigenvalues --   -9.87527  -9.87518  -9.87436  -9.87253  -9.86194
 Alpha  occ. eigenvalues --   -9.84470  -9.83483  -9.79691  -9.66929  -0.70788
 Alpha  occ. eigenvalues --   -0.70325  -0.66763  -0.61916  -0.57790  -0.54698
 Alpha  occ. eigenvalues --   -0.50272  -0.45184  -0.41594  -0.40574  -0.33062
 Alpha  occ. eigenvalues --   -0.32782  -0.30651  -0.27747  -0.25013  -0.23317
 Alpha  occ. eigenvalues --   -0.20530  -0.19615  -0.19031  -0.17129  -0.16766
 Alpha  occ. eigenvalues --   -0.14046  -0.13814  -0.13219  -0.11938  -0.11343
 Alpha  occ. eigenvalues --   -0.10100  -0.09595  -0.05972  -0.02801   0.02011
 Alpha  occ. eigenvalues --    0.11142
 Alpha virt. eigenvalues --    0.17197   0.21521   0.24584   0.27657   0.28409
 Alpha virt. eigenvalues --    0.32117   0.32853   0.38175   0.44633   0.45260
 Alpha virt. eigenvalues --    0.46285   0.49521   0.53708   0.56424   0.57175

 Mulliken charges:
               1
     1  N   -0.256047
     2  C    0.039819
     3  C   -0.108633
     4  C   -0.035402
     5  C   -0.134005
     6  C   -0.209587
     7  C   -0.033761
     8  C   -0.026881
     9  C   -0.089913
    10  C   -0.101206
    11  C   -0.096336
    12  C   -0.013594
    13  N   -0.242690
    14  C    0.068605
    15  H    0.048228
    16  H    0.026196
    17  H    0.053463
    18  H    0.052121
    19  H    0.059621
 Sum of Mulliken charges =  -1.00000

 Dipole moment (field-independent basis, Debye):
    X=             -2.1565    Y=             -6.1645    Z=             -0.0050  Tot=              6.5308
 Quadrupole moment (field-independent basis, Debye-Ang):
   XX=           -121.3753   YY=            -90.5175   ZZ=            -74.1703
   XY=              8.6090   XZ=             -0.0297   YZ=             -0.0023

 Normal termination of Gaussian 09 at Tue Jun 15 11:14:57 2021.
