 Gaussian 09, Revision D.01,
 Gaussian 09:  ES64L-G09RevD.01 24-Apr-2013

 -------------------
 #N B3LYP/STO-3G OPT
 -------------------

 -----
 2Naph
 -----
 Symbolic Z-matrix:
 Charge = -1 Multiplicity = 1

 SCF Done:  E(RB3LYP) =  -562.481302522     A.U. after   28 cycles
 SCF Done:  E(RB3LYP) =  -562.513381204     A.U. after   15 cycles
 SCF Done:  E(RB3LYP) =  -562.517781343     A.U. after   15 cycles
 SCF Done:  E(RB3LYP) =  -562.517835325     A.U. after   13 cycles
 SCF Done:  E(RB3LYP) =  -562.517756567     A.U. after   15 cycles
 SCF Done:  E(RB3LYP) =  -562.517963925     A.U. after    9 cycles
 SCF Done:  E(RB3LYP) =  -562.518012008     A.U. after   12 cycles
 SCF Done:  E(RB3LYP) =  -562.518018037     A.U. after   10 cycles
 Optimization completed.
    -- Stationary point found.

                         Standard orientation:
 ---------------------------------------------------------------------
 Center     Atomic      Atomic             Coordinates (Angstroms)
 Number     Number       Type             X           Y           Z
 ---------------------------------------------------------------------
      1          7           0       -4.748730   -1.564121   -0.000101
      2          6           0       -3.703073   -0.975085    0.000077
      3          6           0       -1.215614   -0.949232   -0.000075
      4          6           0       -2.435672   -0.254676    0.000060
      5          6           0       -2.429222    1.194113    0.000179
      6          6           0       -1.232924    1.883440    0.000183
      7          6           0        0.049754    1.205756    0.000029
      8          6           0        0.033244   -0.252550   -0.000086
      9          6           0        1.301918   -0.920342   -0.000191
     10          6           0        2.482400   -0.158673   -0.000076
     11          6           0        2.623720    1.321193   -0.000224
     12          6           0        1.307768    1.887713   -0.000156
     13          7           0        4.771531   -1.559382    0.000272
     14          6           0        3.743044   -0.942229    0.000122
     15          1           0       -1.215967   -2.048736   -0.000171
     16          1           0       -3.389735    1.725869    0.000262
     17          1           0       -1.236879    2.982636    0.000277
     18          1           0        1.318413   -2.020880   -0.000319
     19          1           0        1.212511    2.989078   -0.000294
 ---------------------------------------------------------------------

 The electronic state is 1-A.
 Alpha  occ. eigenvalues --  -13.99950 -13.94991  -9.91167  -9.90478  -9.89269
 Alpha  occ. eigenvalues --   -9.88599  -9.87501  -9.87127  -9.86458  -9.85535
 Alpha  occ. eigenvalues --   -9.85465  -9.84943  -9.79550  -9.67668  -0.73525
 Alpha  occ. eigenvalues --   -0.69159  -0.68087  -0.62137  -0.58939  -0.54931
 Alpha  occ. eigenvalues --   -0.51646  -0.45199  -0.42770  -0.40707  -0.35112
 Alpha  occ. eigenvalues --   -0.33595  -0.30428  -0.27024  -0.25630  -0.23621
 Alpha  occ. eigenvalues --   -0.22887  -0.21373  -0.18973  -0.17754  -0.17054
 Alpha  occ. eigenvalues --   -0.15862  -0.14622  -0.14267  -0.13548  -0.11157
 Alpha  occ. eigenvalues --   -0.09985  -0.08638  -0.08391  -0.02197   0.00965
 Alpha  occ. eigenvalues --    0.10639
 Alpha virt. eigenvalues --    0.16622   0.19502   0.24811   0.26150   0.28866
 Alpha virt. eigenvalues --    0.29947   0.33465   0.38029   0.42090   0.45381
 Alpha virt. eigenvalues --    0.47042   0.49773   0.52390   0.54046   0.56383

 Mulliken charges:
               1
     1  N   -0.240845
     2  C    0.044316
     3  C   -0.072734
     4  C   -0.041010
     5  C   -0.091721
     6  C   -0.090893
     7  C   -0.017672
     8  C   -0.028799
     9  C   -0.094089
    10  C   -0.054239
    11  C   -0.203752
    12  C   -0.142622
    13  N   -0.267918
    14  C    0.043072
    15  H    0.067925
    16  H    0.061114
    17  H    0.059972
    18  H    0.051186
    19  H    0.018707
 Sum of Mulliken charges =  -1.00000

 Dipole moment (field-independent basis, Debye):
    X=             -5.7693    Y=              0.1745    Z=              0.0003  Tot=              5.7719
 Quadrupole moment (field-independent basis, Debye-Ang):
   XX=           -150.6999   YY=            -84.4432   ZZ=            -74.1544
   XY=             -8.5875   XZ=             -0.0015   YZ=              0.0018

 Normal termination of Gaussian 09 at Tue Jun 15 11:11:50 2021.
