 Gaussian 09, Revision D.01,
 Gaussian 09:  ES64L-G09RevD.01 24-Apr-2013

 -------------------
 #N B3LYP/STO-3G OPT
 -------------------

 -----
 1Naph
 -----
 Symbolic Z-matrix:
 Charge = -1 Multiplicity = 1

 SCF Done:  E(RB3LYP) =  -562.473514290     A.U. after   26 cycles
 SCF Done:  E(RB3LYP) =  -562.505920520     A.U. after   18 cycles
 SCF Done:  E(RB3LYP) =  -562.508135287     A.U. after   16 cycles
 SCF Done:  E(RB3LYP) =  -562.501511491     A.U. after   19 cycles
 SCF Done:  E(RB3LYP) =  -562.509535654     A.U. after   13 cycles
 SCF Done:  E(RB3LYP) =  -562.510108763     A.U. after   14 cycles
 SCF Done:  E(RB3LYP) =  -562.510123238     A.U. after   13 cycles
 SCF Done:  E(RB3LYP) =  -562.510139827     A.U. after   14 cycles
 SCF Done:  E(RB3LYP) =  -562.510131622     A.U. after   14 cycles
 SCF Done:  E(RB3LYP) =  -562.510142197     A.U. after   14 cycles
 Optimization completed.
    -- Stationary point found.

                         Standard orientation:
 ---------------------------------------------------------------------
 Center     Atomic      Atomic             Coordinates (Angstroms)
 Number     Number       Type             X           Y           Z
 ---------------------------------------------------------------------
      1          7           0        3.022451   -1.809015   -0.000155
      2          6           0        1.860846   -1.505489   -0.000121
      3          6           0        0.411945   -1.291419   -0.000020
      4          6           0       -0.380626   -2.455357    0.000026
      5          6           0       -1.794424   -2.369702    0.000082
      6          6           0       -2.400621   -1.112974    0.000071
      7          6           0       -1.670585    0.126630    0.000015
      8          6           0       -0.205737    0.028134    0.000002
      9          6           0        0.532608    1.271350    0.000009
     10          6           0       -0.203679    2.484394   -0.000054
     11          6           0       -1.614521    2.505179   -0.000115
     12          6           0       -2.496839    1.370047   -0.000032
     13          7           0        3.167591    1.569214    0.000186
     14          6           0        1.983677    1.365539    0.000103
     15          1           0        0.112989   -3.436706    0.000009
     16          1           0       -2.393544   -3.288786    0.000121
     17          1           0       -3.498241   -1.034596    0.000093
     18          1           0        0.373746    3.423409   -0.000039
     19          1           0       -2.057500    3.517296   -0.000195
 ---------------------------------------------------------------------

 The electronic state is 1-A.
 Alpha  occ. eigenvalues --  -13.98257 -13.95662  -9.89997  -9.88653  -9.88321
 Alpha  occ. eigenvalues --   -9.87328  -9.86546  -9.86501  -9.86382  -9.86263
 Alpha  occ. eigenvalues --   -9.84928  -9.82886  -9.79119  -9.67183  -0.71659
 Alpha  occ. eigenvalues --   -0.69549  -0.66693  -0.61615  -0.57709  -0.53900
 Alpha  occ. eigenvalues --   -0.51215  -0.44408  -0.41503  -0.40106  -0.34990
 Alpha  occ. eigenvalues --   -0.31764  -0.30096  -0.27376  -0.25105  -0.21568
 Alpha  occ. eigenvalues --   -0.20346  -0.20274  -0.19714  -0.17106  -0.15838
 Alpha  occ. eigenvalues --   -0.14212  -0.13909  -0.13509  -0.12288  -0.10671
 Alpha  occ. eigenvalues --   -0.09636  -0.08487  -0.05927  -0.03301   0.02296
 Alpha  occ. eigenvalues --    0.10855
 Alpha virt. eigenvalues --    0.17404   0.22592   0.23635   0.25615   0.29681
 Alpha virt. eigenvalues --    0.30500   0.36024   0.36978   0.44023   0.46054
 Alpha virt. eigenvalues --    0.46874   0.49636   0.53863   0.54512   0.58130

 Mulliken charges:
               1
     1  N   -0.229701
     2  C    0.049501
     3  C   -0.032940
     4  C   -0.080765
     5  C   -0.113686
     6  C   -0.071489
     7  C   -0.048587
     8  C   -0.007965
     9  C   -0.061930
    10  C   -0.081126
    11  C   -0.150521
    12  C   -0.204158
    13  N   -0.250892
    14  C    0.036043
    15  H    0.062520
    16  H    0.051218
    17  H    0.068100
    18  H    0.048772
    19  H    0.017605
 Sum of Mulliken charges =  -1.00000

 Dipole moment (field-independent basis, Debye):
    X=             -1.3350    Y=             -3.0010    Z=              0.0000  Tot=              3.2846
 Quadrupole moment (field-independent basis, Debye-Ang):
   XX=           -118.3674   YY=            -85.6011   ZZ=            -74.1572
   XY=              8.4634   XZ=             -0.0004   YZ=             -0.0005

 Normal termination of Gaussian 09 at Tue Jun 15 11:17:46 2021.
