 Gaussian 09, Revision D.01,
 Gaussian 09:  ES64L-G09RevD.01 24-Apr-2013

 -------------------
 #N B3LYP/STO-3G OPT
 -------------------

 -----
 1Naph
 -----
 Symbolic Z-matrix:
 Charge = -1 Multiplicity = 1

 SCF Done:  E(RB3LYP) =  -562.471162490     A.U. after   28 cycles
 SCF Done:  E(RB3LYP) =  -562.501406507     A.U. after   19 cycles
 SCF Done:  E(RB3LYP) =  -562.505255717     A.U. after   19 cycles
 SCF Done:  E(RB3LYP) =  -562.504111476     A.U. after   20 cycles
 SCF Done:  E(RB3LYP) =  -562.505559741     A.U. after   14 cycles
 SCF Done:  E(RB3LYP) =  -562.506015579     A.U. after   19 cycles
 SCF Done:  E(RB3LYP) =  -562.505749418     A.U. after   21 cycles
 SCF Done:  E(RB3LYP) =  -562.506075450     A.U. after   14 cycles
 SCF Done:  E(RB3LYP) =  -562.506179476     A.U. after   19 cycles
 SCF Done:  E(RB3LYP) =  -562.506214870     A.U. after   18 cycles
 SCF Done:  E(RB3LYP) =  -562.506233355     A.U. after   18 cycles
 SCF Done:  E(RB3LYP) =  -562.506239264     A.U. after   18 cycles
 SCF Done:  E(RB3LYP) =  -562.506240175     A.U. after   13 cycles
 SCF Done:  E(RB3LYP) =  -562.506240485     A.U. after   13 cycles
 SCF Done:  E(RB3LYP) =  -562.506240577     A.U. after   12 cycles
 Optimization completed.
    -- Stationary point found.

                         Standard orientation:
 ---------------------------------------------------------------------
 Center     Atomic      Atomic             Coordinates (Angstroms)
 Number     Number       Type             X           Y           Z
 ---------------------------------------------------------------------
      1          7           0        1.840328    2.882620    0.000040
      2          6           0        1.264893    1.827340   -0.000031
      3          6           0        0.714437    0.460233   -0.000019
      4          6           0        1.575658   -0.669386   -0.000008
      5          6           0        0.987500   -1.986860   -0.000110
      6          6           0       -0.388178   -2.142226   -0.000139
      7          6           0       -1.279707   -1.006197    0.000015
      8          6           0       -0.724739    0.350986   -0.000024
      9          6           0       -1.466753    1.632468   -0.000104
     10          6           0       -2.868501    1.332905   -0.000116
     11          6           0       -3.469254    0.039814    0.000111
     12          6           0       -2.699639   -1.129201    0.000197
     13          7           0        4.224441   -0.459095    0.000066
     14          6           0        3.026177   -0.533373    0.000131
     15          1           0        1.653282   -2.859631   -0.000178
     16          1           0       -0.817685   -3.154643   -0.000328
     17          1           0       -3.588545    2.171312   -0.000236
     18          1           0       -4.567575   -0.057843    0.000337
     19          1           0       -3.164215   -2.122878    0.000251
 ---------------------------------------------------------------------

 The electronic state is 1-A.
 Alpha  occ. eigenvalues --  -13.99052 -13.96803  -9.90647  -9.90370  -9.89547
 Alpha  occ. eigenvalues --   -9.88103  -9.87656  -9.87191  -9.85898  -9.83696
 Alpha  occ. eigenvalues --   -9.83118  -9.82861  -9.78578  -9.66638  -0.72476
 Alpha  occ. eigenvalues --   -0.70012  -0.66894  -0.61325  -0.58116  -0.54287
 Alpha  occ. eigenvalues --   -0.49976  -0.45310  -0.42023  -0.39301  -0.34371
 Alpha  occ. eigenvalues --   -0.32476  -0.29989  -0.27506  -0.25067  -0.23142
 Alpha  occ. eigenvalues --   -0.20973  -0.18934  -0.18478  -0.16657  -0.15689
 Alpha  occ. eigenvalues --   -0.15340  -0.14113  -0.13924  -0.12900  -0.10803
 Alpha  occ. eigenvalues --   -0.10350  -0.08901  -0.05906  -0.02693   0.02534
 Alpha  occ. eigenvalues --    0.11366
 Alpha virt. eigenvalues --    0.16371   0.21090   0.25781   0.27378   0.28417
 Alpha virt. eigenvalues --    0.30249   0.32809   0.38396   0.42181   0.46310
 Alpha virt. eigenvalues --    0.47206   0.50530   0.52912   0.55404   0.58556

 Mulliken charges:
               1
     1  N   -0.230941
     2  C    0.072662
     3  C    0.003578
     4  C   -0.036139
     5  C   -0.090952
     6  C   -0.092720
     7  C   -0.024539
     8  C   -0.037209
     9  C   -0.207908
    10  C   -0.146587
    11  C   -0.097880
    12  C   -0.126372
    13  N   -0.233992
    14  C    0.048760
    15  H    0.060893
    16  H    0.054210
    17  H    0.015047
    18  H    0.034646
    19  H    0.035443
 Sum of Mulliken charges =  -1.00000

 Dipole moment (field-independent basis, Debye):
    X=             -1.5884    Y=             -6.0061    Z=             -0.0001  Tot=              6.2126
 Quadrupole moment (field-independent basis, Debye-Ang):
   XX=           -111.4483   YY=            -93.2440   ZZ=            -74.1668
   XY=             -0.1991   XZ=             -0.0007   YZ=              0.0005

 Normal termination of Gaussian 09 at Tue Jun 15 11:20:10 2021.
