 Gaussian 09, Revision D.01,
 Gaussian 09:  ES64L-G09RevD.01 24-Apr-2013

 -------------------
 #N B3LYP/STO-3G OPT
 -------------------

 -----
 2Naph
 -----
 Symbolic Z-matrix:
 Charge = -1 Multiplicity = 1

 SCF Done:  E(RB3LYP) =  -562.484603272     A.U. after   27 cycles
 SCF Done:  E(RB3LYP) =  -562.517836783     A.U. after   15 cycles
 SCF Done:  E(RB3LYP) =  -562.522024358     A.U. after   13 cycles
 SCF Done:  E(RB3LYP) =  -562.522030861     A.U. after   13 cycles
 SCF Done:  E(RB3LYP) =  -562.522056045     A.U. after   15 cycles
 SCF Done:  E(RB3LYP) =  -562.522225480     A.U. after   12 cycles
 SCF Done:  E(RB3LYP) =  -562.522228998     A.U. after    9 cycles
 SCF Done:  E(RB3LYP) =  -562.522229164     A.U. after    9 cycles
 SCF Done:  E(RB3LYP) =  -562.522229170     A.U. after    9 cycles
 Optimization completed.
    -- Stationary point found.

                         Standard orientation:
 ---------------------------------------------------------------------
 Center     Atomic      Atomic             Coordinates (Angstroms)
 Number     Number       Type             X           Y           Z
 ---------------------------------------------------------------------
      1          7           0       -5.150718    0.468677   -0.000607
      2          6           0       -3.976726    0.221633    0.000302
      3          6           0       -1.599387    0.951425    0.000150
      4          6           0       -2.546749   -0.084525    0.000177
      5          6           0       -2.104008   -1.455779    0.000105
      6          6           0       -0.743607   -1.734195    0.000044
      7          6           0        0.280704   -0.714327    0.000033
      8          6           0       -0.194002    0.668263    0.000091
      9          6           0        0.785096    1.726037    0.000075
     10          6           0        2.127217    1.390811    0.000007
     11          6           0        2.538326    0.001780   -0.000040
     12          6           0        1.700900   -1.166469   -0.000034
     13          7           0        5.186431   -0.393553   -0.000148
     14          6           0        4.000344   -0.212041   -0.000099
     15          1           0       -1.941131    1.996594    0.000189
     16          1           0       -2.852668   -2.257900    0.000120
     17          1           0       -0.404349   -2.780612    0.000005
     18          1           0        0.453172    2.771588    0.000111
     19          1           0        2.886338    2.188794   -0.000011
 ---------------------------------------------------------------------

 The electronic state is 1-A.
 Alpha  occ. eigenvalues --  -14.00222 -13.93244  -9.91320  -9.90646  -9.88370
 Alpha  occ. eigenvalues --   -9.87480  -9.86694  -9.86371  -9.85054  -9.84125
 Alpha  occ. eigenvalues --   -9.84059  -9.83586  -9.82695  -9.67962  -0.73668
 Alpha  occ. eigenvalues --   -0.67900  -0.67291  -0.62030  -0.57630  -0.55169
 Alpha  occ. eigenvalues --   -0.51207  -0.45231  -0.42625  -0.38953  -0.35544
 Alpha  occ. eigenvalues --   -0.33264  -0.30352  -0.26096  -0.25064  -0.24232
 Alpha  occ. eigenvalues --   -0.21101  -0.20950  -0.20310  -0.16733  -0.16504
 Alpha  occ. eigenvalues --   -0.16039  -0.14243  -0.13467  -0.13171  -0.10229
 Alpha  occ. eigenvalues --   -0.10202  -0.08111  -0.06875  -0.03100   0.01784
 Alpha  occ. eigenvalues --    0.10311
 Alpha virt. eigenvalues --    0.17003   0.20738   0.24804   0.26400   0.29336
 Alpha virt. eigenvalues --    0.31032   0.32848   0.38727   0.42068   0.45803
 Alpha virt. eigenvalues --    0.48212   0.50890   0.52886   0.54586   0.56353

 Mulliken charges:
               1
     1  N   -0.238172
     2  C    0.047548
     3  C   -0.080043
     4  C   -0.033229
     5  C   -0.100526
     6  C   -0.078023
     7  C   -0.041220
     8  C   -0.022302
     9  C   -0.119188
    10  C   -0.090120
    11  C   -0.082363
    12  C   -0.197601
    13  N   -0.282431
    14  C    0.035498
    15  H    0.062546
    16  H    0.058820
    17  H    0.069916
    18  H    0.042085
    19  H    0.048803
 Sum of Mulliken charges =  -1.00000

 Dipole moment (field-independent basis, Debye):
    X=             -4.5602    Y=              2.2819    Z=              0.0013  Tot=              5.0993
 Quadrupole moment (field-independent basis, Debye-Ang):
   XX=           -153.4474   YY=            -77.1993   ZZ=            -74.1615
   XY=             11.3642   XZ=             -0.0046   YZ=              0.0004

 Normal termination of Gaussian 09 at Tue Jun 15 11:12:07 2021.
