 Gaussian 09, Revision D.01,
 Gaussian 09:  ES64L-G09RevD.01 24-Apr-2013

 -------------------
 #N B3LYP/STO-3G OPT
 -------------------

 -----
 1Naph
 -----
 Symbolic Z-matrix:
 Charge = -1 Multiplicity = 1

 SCF Done:  E(RB3LYP) =  -562.489378855     A.U. after   21 cycles
 SCF Done:  E(RB3LYP) =  -562.518614110     A.U. after   16 cycles
 SCF Done:  E(RB3LYP) =  -562.521350859     A.U. after   17 cycles
 SCF Done:  E(RB3LYP) =  -562.518781187     A.U. after   18 cycles
 SCF Done:  E(RB3LYP) =  -562.521991861     A.U. after   13 cycles
 SCF Done:  E(RB3LYP) =  -562.522230472     A.U. after   14 cycles
 SCF Done:  E(RB3LYP) =  -562.522185042     A.U. after   14 cycles
 SCF Done:  E(RB3LYP) =  -562.522273134     A.U. after   14 cycles
 SCF Done:  E(RB3LYP) =  -562.522294508     A.U. after   14 cycles
 SCF Done:  E(RB3LYP) =  -562.522300945     A.U. after   14 cycles
 SCF Done:  E(RB3LYP) =  -562.522302087     A.U. after   10 cycles
 SCF Done:  E(RB3LYP) =  -562.522302269     A.U. after    9 cycles
 Optimization completed.
    -- Stationary point found.

                         Standard orientation:
 ---------------------------------------------------------------------
 Center     Atomic      Atomic             Coordinates (Angstroms)
 Number     Number       Type             X           Y           Z
 ---------------------------------------------------------------------
      1          7           0        1.908332    2.849266   -0.359919
      2          6           0        1.398535    1.763188   -0.277728
      3          6           0        0.798536    0.448578   -0.156133
      4          6           0        1.583784   -0.755221   -0.065383
      5          6           0        1.049118   -2.057942   -0.337160
      6          6           0       -0.340914   -2.129089   -0.390434
      7          6           0       -1.220195   -1.017623   -0.059831
      8          6           0       -0.645192    0.317456   -0.050984
      9          6           0       -1.524370    1.446684    0.083024
     10          6           0       -2.896427    1.277817    0.235694
     11          6           0       -3.462550   -0.031680    0.252118
     12          6           0       -2.638955   -1.145961    0.116422
     13          7           0        4.161658   -0.579778    0.620195
     14          6           0        3.001002   -0.639422    0.319367
     15          1           0       -0.845852   -3.046711   -0.738005
     16          1           0       -1.086065    2.453921    0.080223
     17          1           0       -3.549759    2.153208    0.345779
     18          1           0       -4.548352   -0.152521    0.360077
     19          1           0       -3.074143   -2.155021    0.116150
 ---------------------------------------------------------------------

 The electronic state is 1-A.
 Alpha  occ. eigenvalues --  -13.95681 -13.95178  -9.87198  -9.86936  -9.86900
 Alpha  occ. eigenvalues --   -9.86773  -9.86558  -9.86546  -9.86495  -9.86140
 Alpha  occ. eigenvalues --   -9.86128  -9.85752  -9.81140  -9.71674  -0.69874
 Alpha  occ. eigenvalues --   -0.68908  -0.66954  -0.61671  -0.57635  -0.54461
 Alpha  occ. eigenvalues --   -0.51757  -0.44659  -0.41854  -0.40898  -0.34099
 Alpha  occ. eigenvalues --   -0.33212  -0.29116  -0.27807  -0.24721  -0.23885
 Alpha  occ. eigenvalues --   -0.22461  -0.19984  -0.18512  -0.16278  -0.15675
 Alpha  occ. eigenvalues --   -0.14817  -0.13146  -0.12738  -0.11899  -0.10950
 Alpha  occ. eigenvalues --   -0.09942  -0.08687  -0.07202  -0.01854   0.00625
 Alpha  occ. eigenvalues --    0.08076
 Alpha virt. eigenvalues --    0.17050   0.22632   0.23775   0.28214   0.29631
 Alpha virt. eigenvalues --    0.31051   0.34772   0.37354   0.43510   0.47446
 Alpha virt. eigenvalues --    0.47887   0.50577   0.52289   0.56584   0.57376

 Mulliken charges:
               1
     1  N   -0.255821
     2  C    0.035624
     3  C   -0.046321
     4  C   -0.043540
     5  C   -0.163177
     6  C   -0.132825
     7  C   -0.019609
     8  C   -0.011248
     9  C   -0.094881
    10  C   -0.102148
    11  C   -0.105310
    12  C   -0.095282
    13  N   -0.257261
    14  C    0.045922
    15  H    0.026923
    16  H    0.065910
    17  H    0.050831
    18  H    0.048370
    19  H    0.053843
 Sum of Mulliken charges =  -1.00000

 Dipole moment (field-independent basis, Debye):
    X=             -6.9357    Y=              0.5820    Z=              0.1226  Tot=              6.9611
 Quadrupole moment (field-independent basis, Debye-Ang):
   XX=           -109.7065   YY=            -94.6243   ZZ=            -75.5369
   XY=             -0.5287   XZ=             -2.2959   YZ=              0.4916

 Normal termination of Gaussian 09 at Tue Jun 15 11:18:18 2021.
