 Gaussian 09, Revision D.01,
 Gaussian 09:  ES64L-G09RevD.01 24-Apr-2013

 -------------------
 #N B3LYP/STO-3G OPT
 -------------------

 -----
 2Naph
 -----
 Symbolic Z-matrix:
 Charge = -1 Multiplicity = 1

 SCF Done:  E(RB3LYP) =  -562.437789270     A.U. after   17 cycles
 SCF Done:  E(RB3LYP) =  -562.486265639     A.U. after   18 cycles
 SCF Done:  E(RB3LYP) =  -562.512948994     A.U. after   19 cycles
 SCF Done:  E(RB3LYP) =  -562.523072888     A.U. after   19 cycles
 SCF Done:  E(RB3LYP) =  -562.522874687     A.U. after   19 cycles
 SCF Done:  E(RB3LYP) =  -562.524493177     A.U. after   13 cycles
 SCF Done:  E(RB3LYP) =  -562.526603066     A.U. after   16 cycles
 SCF Done:  E(RB3LYP) =  -562.527811640     A.U. after   17 cycles
 SCF Done:  E(RB3LYP) =  -562.528093375     A.U. after   16 cycles
 SCF Done:  E(RB3LYP) =  -562.528167600     A.U. after   16 cycles
 SCF Done:  E(RB3LYP) =  -562.528177678     A.U. after   14 cycles
 SCF Done:  E(RB3LYP) =  -562.528179959     A.U. after   11 cycles
 SCF Done:  E(RB3LYP) =  -562.528180685     A.U. after   11 cycles
 SCF Done:  E(RB3LYP) =  -562.528180814     A.U. after   11 cycles
 SCF Done:  E(RB3LYP) =  -562.528180847     A.U. after   10 cycles
 Optimization completed.
    -- Stationary point found.

                         Standard orientation:
 ---------------------------------------------------------------------
 Center     Atomic      Atomic             Coordinates (Angstroms)
 Number     Number       Type             X           Y           Z
 ---------------------------------------------------------------------
      1          7           0        4.566424    0.778927    0.111069
      2          6           0        3.393334    0.535095    0.054227
      3          6           0        1.086279    1.328381   -0.110897
      4          6           0        1.946272    0.223450   -0.017138
      5          6           0        1.575150   -1.210461   -0.018251
      6          6           0        0.147040   -1.309968   -0.003791
      7          6           0       -0.828725   -0.224902    0.032314
      8          6           0       -0.335916    1.134121   -0.062293
      9          6           0       -1.273056    2.225606   -0.082901
     10          6           0       -2.639577    1.998043   -0.004214
     11          6           0       -3.133444    0.658751    0.098783
     12          6           0       -2.254580   -0.415791    0.121973
     13          7           0       -0.850445   -3.792682   -0.075553
     14          6           0       -0.416301   -2.674272   -0.046089
     15          1           0        1.472036    2.355301   -0.199699
     16          1           0       -0.883360    3.250565   -0.156032
     17          1           0       -3.346172    2.837743   -0.018791
     18          1           0       -4.216764    0.487578    0.156601
     19          1           0       -2.636458   -1.443223    0.198980
 ---------------------------------------------------------------------

 The electronic state is 1-A.
 Alpha  occ. eigenvalues --  -13.95449 -13.93561  -9.87678  -9.87650  -9.87499
 Alpha  occ. eigenvalues --   -9.87188  -9.87044  -9.86912  -9.85995  -9.85912
 Alpha  occ. eigenvalues --   -9.85688  -9.84471  -9.83372  -9.69561  -0.69509
 Alpha  occ. eigenvalues --   -0.68333  -0.67332  -0.61898  -0.58282  -0.54736
 Alpha  occ. eigenvalues --   -0.52158  -0.44560  -0.42037  -0.40899  -0.35442
 Alpha  occ. eigenvalues --   -0.33004  -0.29339  -0.27609  -0.24733  -0.23999
 Alpha  occ. eigenvalues --   -0.23226  -0.19797  -0.19248  -0.17159  -0.15372
 Alpha  occ. eigenvalues --   -0.15006  -0.13291  -0.12355  -0.11148  -0.10199
 Alpha  occ. eigenvalues --   -0.09929  -0.08173  -0.07433  -0.02344   0.00769
 Alpha  occ. eigenvalues --    0.09404
 Alpha virt. eigenvalues --    0.17195   0.22261   0.25518   0.28431   0.29225
 Alpha virt. eigenvalues --    0.31018   0.36207   0.37089   0.45428   0.46164
 Alpha virt. eigenvalues --    0.47688   0.48617   0.52925   0.54651   0.56344

 Mulliken charges:
               1
     1  N   -0.263791
     2  C    0.045578
     3  C   -0.091082
     4  C   -0.053071
     5  C   -0.180022
     6  C   -0.078749
     7  C   -0.011271
     8  C   -0.025964
     9  C   -0.090577
    10  C   -0.104509
    11  C   -0.098578
    12  C   -0.092807
    13  N   -0.277413
    14  C    0.039912
    15  H    0.052332
    16  H    0.055526
    17  H    0.050851
    18  H    0.053152
    19  H    0.070483
 Sum of Mulliken charges =  -1.00000

 Dipole moment (field-independent basis, Debye):
    X=             -5.8821    Y=              5.7085    Z=             -0.0153  Tot=              8.1967
 Quadrupole moment (field-independent basis, Debye-Ang):
   XX=           -111.9246   YY=           -100.0508   ZZ=            -74.1997
   XY=             -3.1971   XZ=             -0.9716   YZ=             -0.9380

 Normal termination of Gaussian 09 at Tue Jun 15 11:14:47 2021.
