 Gaussian 09, Revision D.01,
 Gaussian 09:  ES64L-G09RevD.01 24-Apr-2013

 -------------------
 #N B3LYP/STO-3G OPT
 -------------------

 -----
 1Naph
 -----
 Symbolic Z-matrix:
 Charge = -1 Multiplicity = 1

 SCF Done:  E(RB3LYP) =  -562.482763188     A.U. after   29 cycles
 SCF Done:  E(RB3LYP) =  -562.515463718     A.U. after   18 cycles
 SCF Done:  E(RB3LYP) =  -562.520227093     A.U. after   14 cycles
 SCF Done:  E(RB3LYP) =  -562.520347832     A.U. after   15 cycles
 SCF Done:  E(RB3LYP) =  -562.520013322     A.U. after   16 cycles
 SCF Done:  E(RB3LYP) =  -562.520413129     A.U. after    9 cycles
 SCF Done:  E(RB3LYP) =  -562.520439443     A.U. after   13 cycles
 SCF Done:  E(RB3LYP) =  -562.520436298     A.U. after   12 cycles
 SCF Done:  E(RB3LYP) =  -562.520440569     A.U. after   12 cycles
 SCF Done:  E(RB3LYP) =  -562.520442258     A.U. after   12 cycles
 Optimization completed.
    -- Stationary point found.

                         Standard orientation:
 ---------------------------------------------------------------------
 Center     Atomic      Atomic             Coordinates (Angstroms)
 Number     Number       Type             X           Y           Z
 ---------------------------------------------------------------------
      1          7           0       -1.634409    3.447292   -0.000022
      2          6           0       -1.547255    2.249863   -0.000009
      3          6           0       -1.601870    0.778040   -0.000002
      4          6           0       -2.850690    0.134768    0.000009
      5          6           0       -2.904517   -1.287669    0.000022
      6          6           0       -1.729596   -2.033598    0.000018
      7          6           0       -0.439925   -1.397596   -0.000001
      8          6           0       -0.342558    0.056540   -0.000002
      9          6           0        0.895426    0.878708    0.000006
     10          6           0        2.018961   -0.016417   -0.000004
     11          6           0        1.991007   -1.464690   -0.000032
     12          6           0        0.787938   -2.149777   -0.000026
     13          7           0        4.471310    1.056658    0.000033
     14          6           0        3.371762    0.576643    0.000014
     15          1           0       -3.777974    0.721984    0.000009
     16          1           0       -3.880822   -1.790232    0.000038
     17          1           0       -1.779778   -3.132152    0.000029
     18          1           0        2.936243   -2.030047   -0.000064
     19          1           0        0.751931   -3.246091   -0.000042
 ---------------------------------------------------------------------

 The electronic state is 1-A.
 Alpha  occ. eigenvalues --  -13.96989 -13.92973  -9.89558  -9.87833  -9.87803
 Alpha  occ. eigenvalues --   -9.87683  -9.87319  -9.86451  -9.84851  -9.83868
 Alpha  occ. eigenvalues --   -9.83810  -9.83776  -9.82502  -9.68254  -0.70447
 Alpha  occ. eigenvalues --   -0.67596  -0.66878  -0.61623  -0.57981  -0.54354
 Alpha  occ. eigenvalues --   -0.51088  -0.44683  -0.42339  -0.39540  -0.33976
 Alpha  occ. eigenvalues --   -0.32882  -0.30417  -0.27799  -0.24860  -0.22846
 Alpha  occ. eigenvalues --   -0.20464  -0.19866  -0.19660  -0.17225  -0.14950
 Alpha  occ. eigenvalues --   -0.13497  -0.13333  -0.13171  -0.11107  -0.09973
 Alpha  occ. eigenvalues --   -0.09960  -0.07895  -0.05931  -0.02977   0.01970
 Alpha  occ. eigenvalues --    0.10317
 Alpha virt. eigenvalues --    0.17676   0.21338   0.27046   0.28161   0.29982
 Alpha virt. eigenvalues --    0.31317   0.33450   0.39156   0.44523   0.46329
 Alpha virt. eigenvalues --    0.47373   0.49644   0.53611   0.54955   0.57377

 Mulliken charges:
               1
     1  N   -0.238879
     2  C    0.069517
     3  C   -0.011930
     4  C   -0.096551
     5  C   -0.099788
     6  C   -0.091819
     7  C   -0.022784
     8  C   -0.035371
     9  C   -0.188487
    10  C   -0.082626
    11  C   -0.089678
    12  C   -0.121197
    13  N   -0.281266
    14  C    0.036693
    15  H    0.060276
    16  H    0.052570
    17  H    0.052741
    18  H    0.048322
    19  H    0.040255
 Sum of Mulliken charges =  -1.00000

 Dipole moment (field-independent basis, Debye):
    X=             -5.5580    Y=             -6.2652    Z=              0.0000  Tot=              8.3752
 Quadrupole moment (field-independent basis, Debye-Ang):
   XX=           -108.6347   YY=            -96.0779   ZZ=            -74.1671
   XY=             -3.8084   XZ=             -0.0004   YZ=              0.0000

 Normal termination of Gaussian 09 at Tue Jun 15 11:18:27 2021.
