 Gaussian 09, Revision D.01,
 Gaussian 09:  ES64L-G09RevD.01 24-Apr-2013

 -------------------
 #N B3LYP/STO-3G OPT
 -------------------

 -----
 2Naph
 -----
 Symbolic Z-matrix:
 Charge = -1 Multiplicity = 1

 SCF Done:  E(RB3LYP) =  -562.462225842     A.U. after   27 cycles
 SCF Done:  E(RB3LYP) =  -562.495684930     A.U. after   19 cycles
 SCF Done:  E(RB3LYP) =  -562.501734610     A.U. after   19 cycles
 SCF Done:  E(RB3LYP) =  -562.504129511     A.U. after   19 cycles
 SCF Done:  E(RB3LYP) =  -562.504098620     A.U. after   21 cycles
 SCF Done:  E(RB3LYP) =  -562.504816885     A.U. after   14 cycles
 SCF Done:  E(RB3LYP) =  -562.505522958     A.U. after   17 cycles
 SCF Done:  E(RB3LYP) =  -562.505623503     A.U. after   16 cycles
 SCF Done:  E(RB3LYP) =  -562.505585793     A.U. after   16 cycles
 SCF Done:  E(RB3LYP) =  -562.505650989     A.U. after   14 cycles
 SCF Done:  E(RB3LYP) =  -562.505655416     A.U. after   13 cycles
 SCF Done:  E(RB3LYP) =  -562.505656342     A.U. after   12 cycles
 SCF Done:  E(RB3LYP) =  -562.505656555     A.U. after   12 cycles
 Optimization completed.
    -- Stationary point found.

                         Standard orientation:
 ---------------------------------------------------------------------
 Center     Atomic      Atomic             Coordinates (Angstroms)
 Number     Number       Type             X           Y           Z
 ---------------------------------------------------------------------
      1          7           0        4.224690   -0.463619   -0.016791
      2          6           0        3.026915   -0.542741   -0.004455
      3          6           0        0.731412    0.464013    0.028840
      4          6           0        1.573583   -0.682016    0.010012
      5          6           0        0.989276   -1.991528   -0.012676
      6          6           0       -0.395811   -2.132551   -0.010258
      7          6           0       -1.319006   -1.024977    0.018739
      8          6           0       -0.714451    0.319556    0.043241
      9          6           0       -1.592472    1.446208    0.021312
     10          6           0       -2.967728    1.216213   -0.039064
     11          6           0       -3.501994   -0.107520   -0.031067
     12          6           0       -2.767251   -1.330109    0.031446
     13          7           0        1.807670    2.898009   -0.010659
     14          6           0        1.334599    1.794034   -0.003494
     15          1           0        1.652562   -2.864967   -0.035975
     16          1           0       -0.832025   -3.142319   -0.040997
     17          1           0       -1.178895    2.461385    0.042785
     18          1           0       -3.643870    2.086866   -0.055657
     19          1           0       -4.606719   -0.153182   -0.033455
 ---------------------------------------------------------------------

 The electronic state is 1-A.
 Alpha  occ. eigenvalues --  -13.99943 -13.99027  -9.91674  -9.90962  -9.90285
 Alpha  occ. eigenvalues --   -9.89422  -9.87288  -9.86437  -9.86328  -9.83591
 Alpha  occ. eigenvalues --   -9.82848  -9.82738  -9.78581  -9.66258  -0.73297
 Alpha  occ. eigenvalues --   -0.72192  -0.67149  -0.61225  -0.58240  -0.54314
 Alpha  occ. eigenvalues --   -0.49719  -0.45839  -0.41990  -0.39539  -0.33815
 Alpha  occ. eigenvalues --   -0.32902  -0.30014  -0.27400  -0.24752  -0.22939
 Alpha  occ. eigenvalues --   -0.21724  -0.19901  -0.18290  -0.16591  -0.16179
 Alpha  occ. eigenvalues --   -0.16004  -0.15044  -0.14501  -0.13718  -0.13217
 Alpha  occ. eigenvalues --   -0.10773  -0.09066  -0.06184  -0.02739   0.02552
 Alpha  occ. eigenvalues --    0.11555
 Alpha virt. eigenvalues --    0.15433   0.21166   0.24874   0.26202   0.27645
 Alpha virt. eigenvalues --    0.29389   0.31768   0.38392   0.41148   0.46001
 Alpha virt. eigenvalues --    0.47008   0.50922   0.52833   0.56454   0.58339

 Mulliken charges:
               1
     1  N   -0.229613
     2  C    0.050164
     3  C   -0.020773
     4  C   -0.022026
     5  C   -0.102322
     6  C   -0.074975
     7  C   -0.042693
     8  C   -0.015939
     9  C   -0.125788
    10  C   -0.097177
    11  C   -0.146506
    12  C   -0.217825
    13  N   -0.231419
    14  C    0.051191
    15  H    0.059762
    16  H    0.068638
    17  H    0.048023
    18  H    0.036519
    19  H    0.012758
 Sum of Mulliken charges =  -1.00000

 Dipole moment (field-independent basis, Debye):
    X=              1.1867    Y=             -0.2215    Z=             -0.1052  Tot=              1.2118
 Quadrupole moment (field-independent basis, Debye-Ang):
   XX=           -123.1377   YY=            -90.2589   ZZ=            -74.2200
   XY=            -13.6527   XZ=              0.4718   YZ=              0.4155

 Normal termination of Gaussian 09 at Tue Jun 15 11:15:44 2021.
