 Gaussian 09, Revision D.01,
 Gaussian 09:  ES64L-G09RevD.01 24-Apr-2013

 -------------------
 #N B3LYP/STO-3G OPT
 -------------------

 -----
 1Naph
 -----
 Symbolic Z-matrix:
 Charge = -1 Multiplicity = 1

 SCF Done:  E(RB3LYP) =  -562.486127202     A.U. after   24 cycles
 SCF Done:  E(RB3LYP) =  -562.515810832     A.U. after   17 cycles
 SCF Done:  E(RB3LYP) =  -562.518539913     A.U. after   19 cycles
 SCF Done:  E(RB3LYP) =  -562.517026444     A.U. after   18 cycles
 SCF Done:  E(RB3LYP) =  -562.519657494     A.U. after   13 cycles
 SCF Done:  E(RB3LYP) =  -562.519967240     A.U. after   13 cycles
 SCF Done:  E(RB3LYP) =  -562.519934030     A.U. after   13 cycles
 SCF Done:  E(RB3LYP) =  -562.519987668     A.U. after   13 cycles
 SCF Done:  E(RB3LYP) =  -562.519997817     A.U. after   12 cycles
 SCF Done:  E(RB3LYP) =  -562.520003256     A.U. after   12 cycles
 SCF Done:  E(RB3LYP) =  -562.520006578     A.U. after   11 cycles
 SCF Done:  E(RB3LYP) =  -562.520007134     A.U. after   10 cycles
 Optimization completed.
    -- Stationary point found.

                         Standard orientation:
 ---------------------------------------------------------------------
 Center     Atomic      Atomic             Coordinates (Angstroms)
 Number     Number       Type             X           Y           Z
 ---------------------------------------------------------------------
      1          7           0        1.520304    3.461469   -0.218112
      2          6           0        1.584335    2.268070   -0.106425
      3          6           0        1.699970    0.807355    0.052742
      4          6           0        3.004873    0.250069    0.116036
      5          6           0        2.954857   -1.205427    0.181759
      6          6           0        1.826953   -1.991614   -0.059932
      7          6           0        0.523103   -1.387766   -0.070298
      8          6           0        0.438782    0.057691    0.069633
      9          6           0       -0.856680    0.656837    0.139394
     10          6           0       -2.031837   -0.113528    0.029922
     11          6           0       -1.938331   -1.543823   -0.119590
     12          6           0       -0.693548   -2.151302   -0.163902
     13          7           0       -4.430949    1.032468    0.102292
     14          6           0       -3.345456    0.521657    0.064837
     15          1           0        3.895433   -1.751584    0.383371
     16          1           0        1.888447   -3.084552   -0.171029
     17          1           0       -0.930858    1.747124    0.258285
     18          1           0       -2.859393   -2.135271   -0.195908
     19          1           0       -0.621237   -3.242597   -0.269038
 ---------------------------------------------------------------------

 The electronic state is 1-A.
 Alpha  occ. eigenvalues --  -13.99423 -13.93306  -9.90810  -9.89919  -9.88201
 Alpha  occ. eigenvalues --   -9.87973  -9.87575  -9.87059  -9.86839  -9.84207
 Alpha  occ. eigenvalues --   -9.83997  -9.83104  -9.81936  -9.69394  -0.72942
 Alpha  occ. eigenvalues --   -0.68240  -0.67368  -0.61764  -0.58507  -0.54300
 Alpha  occ. eigenvalues --   -0.52021  -0.44840  -0.42404  -0.40440  -0.35425
 Alpha  occ. eigenvalues --   -0.33313  -0.28708  -0.27628  -0.25104  -0.24525
 Alpha  occ. eigenvalues --   -0.22139  -0.20943  -0.18974  -0.16942  -0.16754
 Alpha  occ. eigenvalues --   -0.15713  -0.13919  -0.13722  -0.12922  -0.10494
 Alpha  occ. eigenvalues --   -0.09787  -0.08263  -0.07520  -0.02265   0.00952
 Alpha  occ. eigenvalues --    0.09693
 Alpha virt. eigenvalues --    0.16785   0.21115   0.24847   0.25436   0.29692
 Alpha virt. eigenvalues --    0.30877   0.34126   0.37829   0.42754   0.45210
 Alpha virt. eigenvalues --    0.48906   0.50273   0.53264   0.55134   0.57141

 Mulliken charges:
               1
     1  N   -0.278029
     2  C    0.036240
     3  C   -0.078507
     4  C   -0.183526
     5  C   -0.116623
     6  C   -0.110947
     7  C   -0.019930
     8  C   -0.013837
     9  C   -0.078081
    10  C   -0.036988
    11  C   -0.093880
    12  C   -0.093420
    13  N   -0.239613
    14  C    0.046041
    15  H    0.026929
    16  H    0.038029
    17  H    0.079651
    18  H    0.060302
    19  H    0.056189
 Sum of Mulliken charges =  -1.00000

 Dipole moment (field-independent basis, Debye):
    X=             -3.0096    Y=             -5.5091    Z=              0.0516  Tot=              6.2778
 Quadrupole moment (field-independent basis, Debye-Ang):
   XX=           -122.6136   YY=            -94.5165   ZZ=            -74.3637
   XY=             -2.2783   XZ=              0.5234   YZ=              1.5013

 Normal termination of Gaussian 09 at Tue Jun 15 11:19:05 2021.
