 Gaussian 09, Revision D.01,
 Gaussian 09:  ES64L-G09RevD.01 24-Apr-2013

 -------------------
 #N B3LYP/STO-3G OPT
 -------------------

 -----
 1Naph
 -----
 Symbolic Z-matrix:
 Charge = -1 Multiplicity = 1

 SCF Done:  E(RB3LYP) =  -562.480241814     A.U. after   29 cycles
 SCF Done:  E(RB3LYP) =  -562.511800310     A.U. after   20 cycles
 SCF Done:  E(RB3LYP) =  -562.515498130     A.U. after   17 cycles
 SCF Done:  E(RB3LYP) =  -562.514455707     A.U. after   19 cycles
 SCF Done:  E(RB3LYP) =  -562.515689391     A.U. after   13 cycles
 SCF Done:  E(RB3LYP) =  -562.515959634     A.U. after   17 cycles
 SCF Done:  E(RB3LYP) =  -562.515984945     A.U. after   16 cycles
 SCF Done:  E(RB3LYP) =  -562.515854554     A.U. after   17 cycles
 SCF Done:  E(RB3LYP) =  -562.516034315     A.U. after   17 cycles
 SCF Done:  E(RB3LYP) =  -562.516036923     A.U. after   12 cycles
 SCF Done:  E(RB3LYP) =  -562.516037220     A.U. after   11 cycles
 Optimization completed.
    -- Stationary point found.

                         Standard orientation:
 ---------------------------------------------------------------------
 Center     Atomic      Atomic             Coordinates (Angstroms)
 Number     Number       Type             X           Y           Z
 ---------------------------------------------------------------------
      1          7           0        1.672579    3.425684   -0.000092
      2          6           0        1.651943    2.224703   -0.000055
      3          6           0        1.650589    0.772580    0.000091
      4          6           0        2.864208    0.049809    0.000132
      5          6           0        2.879389   -1.367446    0.000079
      6          6           0        1.751651   -2.260110   -0.000075
      7          6           0        0.505470   -1.441388   -0.000094
      8          6           0        0.410912    0.017444    0.000045
      9          6           0       -0.868598    0.664275    0.000048
     10          6           0       -2.055103   -0.084674    0.000022
     11          6           0       -1.992557   -1.524330    0.000011
     12          6           0       -0.754547   -2.151264   -0.000034
     13          7           0       -4.426918    1.124959   -0.000014
     14          6           0       -3.355123    0.586102    0.000008
     15          1           0        3.804832    0.624335   -0.000059
     16          1           0        3.893807   -1.806481   -0.000350
     17          1           0       -0.917314    1.762740    0.000088
     18          1           0       -2.927069   -2.099171    0.000029
     19          1           0       -0.703287   -3.250132   -0.000050
 ---------------------------------------------------------------------

 The electronic state is 1-A.
 Alpha  occ. eigenvalues --  -13.99848 -13.96344  -9.91033  -9.90258  -9.87997
 Alpha  occ. eigenvalues --   -9.87277  -9.87154  -9.86932  -9.86710  -9.86084
 Alpha  occ. eigenvalues --   -9.85209  -9.83164  -9.79429  -9.67161  -0.73248
 Alpha  occ. eigenvalues --   -0.70542  -0.67063  -0.62132  -0.57372  -0.54714
 Alpha  occ. eigenvalues --   -0.51433  -0.44541  -0.42238  -0.39763  -0.35535
 Alpha  occ. eigenvalues --   -0.32760  -0.30619  -0.25714  -0.24945  -0.23128
 Alpha  occ. eigenvalues --   -0.21079  -0.20767  -0.19949  -0.17572  -0.17031
 Alpha  occ. eigenvalues --   -0.15793  -0.14099  -0.14025  -0.13044  -0.12089
 Alpha  occ. eigenvalues --   -0.09767  -0.09125  -0.06821  -0.03352   0.02009
 Alpha  occ. eigenvalues --    0.10856
 Alpha virt. eigenvalues --    0.17049   0.21329   0.24185   0.25230   0.27625
 Alpha virt. eigenvalues --    0.29195   0.35472   0.37019   0.42463   0.45769
 Alpha virt. eigenvalues --    0.46652   0.51952   0.53099   0.54333   0.57110

 Mulliken charges:
               1
     1  N   -0.260732
     2  C    0.034746
     3  C   -0.060181
     4  C   -0.084429
     5  C   -0.146886
     6  C   -0.207818
     7  C   -0.044191
     8  C   -0.015677
     9  C   -0.080194
    10  C   -0.031636
    11  C   -0.101621
    12  C   -0.078760
    13  N   -0.236753
    14  C    0.049124
    15  H    0.047538
    16  H    0.017559
    17  H    0.074153
    18  H    0.058037
    19  H    0.067721
 Sum of Mulliken charges =  -1.00000

 Dipole moment (field-independent basis, Debye):
    X=             -1.3293    Y=             -0.2500    Z=              0.0002  Tot=              1.3526
 Quadrupole moment (field-independent basis, Debye-Ang):
   XX=           -110.0553   YY=           -106.4910   ZZ=            -74.1461
   XY=              9.6181   XZ=             -0.0003   YZ=             -0.0002

 Normal termination of Gaussian 09 at Tue Jun 15 11:18:20 2021.
