 Gaussian 09, Revision D.01,
 Gaussian 09:  ES64L-G09RevD.01 24-Apr-2013

 -------------------
 #N B3LYP/STO-3G OPT
 -------------------

 -----
 1Naph
 -----
 Symbolic Z-matrix:
 Charge = -1 Multiplicity = 1

 SCF Done:  E(RB3LYP) =  -562.472625702     A.U. after   34 cycles
 SCF Done:  E(RB3LYP) =  -562.501879979     A.U. after   19 cycles
 SCF Done:  E(RB3LYP) =  -562.505059826     A.U. after   17 cycles
 SCF Done:  E(RB3LYP) =  -562.505138817     A.U. after   14 cycles
 SCF Done:  E(RB3LYP) =  -562.504965550     A.U. after   15 cycles
 SCF Done:  E(RB3LYP) =  -562.505237441     A.U. after   14 cycles
 SCF Done:  E(RB3LYP) =  -562.505234577     A.U. after   13 cycles
 SCF Done:  E(RB3LYP) =  -562.505239869     A.U. after   13 cycles
 SCF Done:  E(RB3LYP) =  -562.505240716     A.U. after   10 cycles
 SCF Done:  E(RB3LYP) =  -562.505240976     A.U. after   10 cycles
 Optimization completed.
    -- Stationary point found.

                         Standard orientation:
 ---------------------------------------------------------------------
 Center     Atomic      Atomic             Coordinates (Angstroms)
 Number     Number       Type             X           Y           Z
 ---------------------------------------------------------------------
      1          7           0        1.822773    2.894976    0.046526
      2          6           0        1.326780    1.801147    0.021101
      3          6           0        0.720340    0.475552    0.000298
      4          6           0        1.563097   -0.680058   -0.007020
      5          6           0        0.969627   -1.984643   -0.022770
      6          6           0       -0.412194   -2.130521   -0.058880
      7          6           0       -1.305779   -1.000926   -0.041164
      8          6           0       -0.719944    0.340218   -0.013172
      9          6           0       -1.621347    1.455857   -0.020848
     10          6           0       -2.998404    1.230043   -0.103690
     11          6           0       -3.653699   -0.049337    0.116201
     12          6           0       -2.734224   -1.122175    0.084941
     13          7           0        4.211870   -0.484121    0.012107
     14          6           0        3.012857   -0.553157    0.003575
     15          1           0        1.628665   -2.862393   -0.016939
     16          1           0       -0.849251   -3.138289   -0.088275
     17          1           0       -1.192503    2.468132   -0.009257
     18          1           0       -3.625900    2.121892   -0.290437
     19          1           0       -3.086168   -2.157329    0.243047
 ---------------------------------------------------------------------

 The electronic state is 1-A.
 Alpha  occ. eigenvalues --  -13.99305 -13.98877  -9.91105  -9.90903  -9.89796
 Alpha  occ. eigenvalues --   -9.89322  -9.88118  -9.87106  -9.86910  -9.86161
 Alpha  occ. eigenvalues --   -9.83020  -9.81262  -9.79422  -9.68500  -0.72921
 Alpha  occ. eigenvalues --   -0.72003  -0.67608  -0.61358  -0.59090  -0.53736
 Alpha  occ. eigenvalues --   -0.51102  -0.45730  -0.42117  -0.40218  -0.34431
 Alpha  occ. eigenvalues --   -0.32977  -0.30169  -0.28003  -0.24852  -0.22758
 Alpha  occ. eigenvalues --   -0.21806  -0.19989  -0.18646  -0.17812  -0.16465
 Alpha  occ. eigenvalues --   -0.15665  -0.15183  -0.14824  -0.13654  -0.12964
 Alpha  occ. eigenvalues --   -0.11003  -0.09575  -0.06950  -0.01879   0.01204
 Alpha  occ. eigenvalues --    0.10481
 Alpha virt. eigenvalues --    0.15318   0.20667   0.25198   0.26272   0.26855
 Alpha virt. eigenvalues --    0.29781   0.31317   0.38538   0.41576   0.45159
 Alpha virt. eigenvalues --    0.46886   0.50159   0.54677   0.56857   0.58312

 Mulliken charges:
               1
     1  N   -0.231467
     2  C    0.051092
     3  C   -0.022227
     4  C   -0.030492
     5  C   -0.093138
     6  C   -0.093232
     7  C   -0.016383
     8  C   -0.014517
     9  C   -0.116323
    10  C   -0.116424
    11  C   -0.194741
    12  C   -0.143692
    13  N   -0.234970
    14  C    0.046020
    15  H    0.061522
    16  H    0.057953
    17  H    0.047494
    18  H    0.025720
    19  H    0.017806
 Sum of Mulliken charges =  -1.00000

 Dipole moment (field-independent basis, Debye):
    X=              1.9575    Y=             -2.4546    Z=             -0.3548  Tot=              3.1596
 Quadrupole moment (field-independent basis, Debye-Ang):
   XX=           -133.8824   YY=            -85.2990   ZZ=            -74.4564
   XY=             -5.7448   XZ=              1.3081   YZ=             -0.0800

 Normal termination of Gaussian 09 at Tue Jun 15 11:17:56 2021.
