 Gaussian 09, Revision D.01,
 Gaussian 09:  ES64L-G09RevD.01 24-Apr-2013

 -------------------
 #N B3LYP/STO-3G OPT
 -------------------

 -----
 2Naph
 -----
 Symbolic Z-matrix:
 Charge = -1 Multiplicity = 1

 SCF Done:  E(RB3LYP) =  -562.475750468     A.U. after   20 cycles
 SCF Done:  E(RB3LYP) =  -562.506527590     A.U. after   16 cycles
 SCF Done:  E(RB3LYP) =  -562.513942249     A.U. after   18 cycles
 SCF Done:  E(RB3LYP) =  -562.513343896     A.U. after   19 cycles
 SCF Done:  E(RB3LYP) =  -562.514793904     A.U. after   12 cycles
 SCF Done:  E(RB3LYP) =  -562.515332379     A.U. after   18 cycles
 SCF Done:  E(RB3LYP) =  -562.515567333     A.U. after   15 cycles
 SCF Done:  E(RB3LYP) =  -562.515793401     A.U. after   14 cycles
 SCF Done:  E(RB3LYP) =  -562.515878490     A.U. after   14 cycles
 SCF Done:  E(RB3LYP) =  -562.515901413     A.U. after   14 cycles
 SCF Done:  E(RB3LYP) =  -562.515904878     A.U. after   11 cycles
 SCF Done:  E(RB3LYP) =  -562.515905252     A.U. after   11 cycles
 Optimization completed.
    -- Stationary point found.

                         Standard orientation:
 ---------------------------------------------------------------------
 Center     Atomic      Atomic             Coordinates (Angstroms)
 Number     Number       Type             X           Y           Z
 ---------------------------------------------------------------------
      1          7           0       -4.435974    1.063213   -0.313059
      2          6           0       -3.380140    0.518381   -0.144725
      3          6           0       -0.937534    0.649998    0.161018
      4          6           0       -2.090245   -0.169045    0.076946
      5          6           0       -2.108127   -1.617876    0.227532
      6          6           0       -0.810836   -2.161135    0.207245
      7          6           0        0.413024   -1.418067    0.001453
      8          6           0        0.347445    0.040785    0.063457
      9          6           0        1.594910    0.790545    0.005518
     10          6           0        2.830613    0.127850   -0.116153
     11          6           0        2.879619   -1.289416   -0.183307
     12          6           0        1.700276   -2.035311   -0.144329
     13          7           0        1.604728    3.448851    0.122490
     14          6           0        1.582531    2.249906    0.066110
     15          1           0       -1.003552    1.743927    0.244732
     16          1           0       -0.663644   -3.239844    0.392373
     17          1           0        3.757585    0.714231   -0.158774
     18          1           0        3.852709   -1.790424   -0.264793
     19          1           0        1.746413   -3.132032   -0.204148
 ---------------------------------------------------------------------

 The electronic state is 1-A.
 Alpha  occ. eigenvalues --  -13.98976 -13.94649  -9.90414  -9.89473  -9.88349
 Alpha  occ. eigenvalues --   -9.87406  -9.87194  -9.87106  -9.86136  -9.85286
 Alpha  occ. eigenvalues --   -9.84908  -9.84086  -9.79866  -9.69415  -0.72491
 Alpha  occ. eigenvalues --   -0.68796  -0.67477  -0.61424  -0.58863  -0.54319
 Alpha  occ. eigenvalues --   -0.50894  -0.45697  -0.42193  -0.40079  -0.34142
 Alpha  occ. eigenvalues --   -0.33323  -0.30376  -0.27807  -0.24035  -0.23403
 Alpha  occ. eigenvalues --   -0.21791  -0.20716  -0.19064  -0.17609  -0.16062
 Alpha  occ. eigenvalues --   -0.15191  -0.14303  -0.13468  -0.13309  -0.11182
 Alpha  occ. eigenvalues --   -0.09946  -0.08934  -0.07264  -0.01588   0.00887
 Alpha  occ. eigenvalues --    0.09677
 Alpha virt. eigenvalues --    0.16087   0.21754   0.25680   0.25895   0.29077
 Alpha virt. eigenvalues --    0.30182   0.33692   0.38373   0.43266   0.45260
 Alpha virt. eigenvalues --    0.48300   0.48460   0.53478   0.56579   0.57404

 Mulliken charges:
               1
     1  N   -0.267442
     2  C    0.042826
     3  C   -0.104725
     4  C   -0.052590
     5  C   -0.183755
     6  C   -0.140104
     7  C   -0.019112
     8  C   -0.015461
     9  C   -0.031750
    10  C   -0.089309
    11  C   -0.106253
    12  C   -0.089270
    13  N   -0.238642
    14  C    0.048690
    15  H    0.056966
    16  H    0.020633
    17  H    0.060483
    18  H    0.051899
    19  H    0.056916
 Sum of Mulliken charges =  -1.00000

 Dipole moment (field-independent basis, Debye):
    X=              7.0114    Y=             -1.3462    Z=             -0.1396  Tot=              7.1409
 Quadrupole moment (field-independent basis, Debye-Ang):
   XX=           -114.8066   YY=            -98.4077   ZZ=            -74.6799
   XY=             -6.1975   XZ=             -1.3875   YZ=              1.0889

 Normal termination of Gaussian 09 at Tue Jun 15 11:14:25 2021.
