 Gaussian 09, Revision D.01,
 Gaussian 09:  ES64L-G09RevD.01 24-Apr-2013

 -------------------
 #N B3LYP/STO-3G OPT
 -------------------

 -----
 1Naph
 -----
 Symbolic Z-matrix:
 Charge = -1 Multiplicity = 1

 SCF Done:  E(RB3LYP) =  -562.475278487     A.U. after   32 cycles
 SCF Done:  E(RB3LYP) =  -562.503653230     A.U. after   18 cycles
 SCF Done:  E(RB3LYP) =  -562.506682893     A.U. after   15 cycles
 SCF Done:  E(RB3LYP) =  -562.505111038     A.U. after   19 cycles
 SCF Done:  E(RB3LYP) =  -562.506895160     A.U. after   12 cycles
 SCF Done:  E(RB3LYP) =  -562.507021343     A.U. after   14 cycles
 SCF Done:  E(RB3LYP) =  -562.507030739     A.U. after   12 cycles
 SCF Done:  E(RB3LYP) =  -562.507016566     A.U. after   13 cycles
 SCF Done:  E(RB3LYP) =  -562.507035003     A.U. after   12 cycles
 SCF Done:  E(RB3LYP) =  -562.507035674     A.U. after   11 cycles
 SCF Done:  E(RB3LYP) =  -562.507035956     A.U. after   11 cycles
 Optimization completed.
    -- Stationary point found.

                         Standard orientation:
 ---------------------------------------------------------------------
 Center     Atomic      Atomic             Coordinates (Angstroms)
 Number     Number       Type             X           Y           Z
 ---------------------------------------------------------------------
      1          7           0        0.626074    3.849682    0.061339
      2          6           0        0.330474    2.686252    0.043611
      3          6           0       -0.076680    1.282465    0.020363
      4          6           0       -1.449452    0.991421   -0.009061
      5          6           0       -1.903080   -0.367035   -0.005045
      6          6           0       -0.953591   -1.416649    0.008094
      7          6           0        0.443732   -1.156192    0.017766
      8          6           0        0.934397    0.223839    0.016211
      9          6           0        2.340932    0.450262   -0.098278
     10          6           0        3.357463   -0.547765   -0.139664
     11          6           0        2.785930   -1.879170    0.085568
     12          6           0        1.434191   -2.204196    0.043656
     13          7           0       -4.507008   -0.896305   -0.033604
     14          6           0       -3.330859   -0.656720   -0.021124
     15          1           0       -2.185247    1.805948   -0.033932
     16          1           0       -1.304868   -2.458066    0.010563
     17          1           0        2.617453    1.511367   -0.230344
     18          1           0        3.481457   -2.726926    0.234890
     19          1           0        1.076999   -3.245020    0.052088
 ---------------------------------------------------------------------

 The electronic state is 1-A.
 Alpha  occ. eigenvalues --  -13.99502 -13.98585  -9.90835  -9.90249  -9.90092
 Alpha  occ. eigenvalues --   -9.89265  -9.89143  -9.88535  -9.86796  -9.86690
 Alpha  occ. eigenvalues --   -9.83472  -9.81120  -9.79177  -9.67957  -0.73143
 Alpha  occ. eigenvalues --   -0.72072  -0.67895  -0.61505  -0.59563  -0.53604
 Alpha  occ. eigenvalues --   -0.51455  -0.45301  -0.42974  -0.40233  -0.35382
 Alpha  occ. eigenvalues --   -0.31655  -0.30047  -0.28942  -0.25512  -0.22798
 Alpha  occ. eigenvalues --   -0.21651  -0.20718  -0.19074  -0.17676  -0.17441
 Alpha  occ. eigenvalues --   -0.15963  -0.14971  -0.14688  -0.14045  -0.12964
 Alpha  occ. eigenvalues --   -0.10550  -0.09352  -0.07331  -0.02212   0.01294
 Alpha  occ. eigenvalues --    0.10884
 Alpha virt. eigenvalues --    0.16302   0.19267   0.24892   0.25982   0.26583
 Alpha virt. eigenvalues --    0.29145   0.33375   0.37669   0.41863   0.45142
 Alpha virt. eigenvalues --    0.45534   0.52020   0.53026   0.54197   0.57517

 Mulliken charges:
               1
     1  N   -0.238194
     2  C    0.052375
     3  C   -0.032669
     4  C   -0.077151
     5  C   -0.043809
     6  C   -0.076792
     7  C   -0.025330
     8  C   -0.008989
     9  C   -0.146251
    10  C   -0.196327
    11  C   -0.120172
    12  C   -0.112190
    13  N   -0.242394
    14  C    0.043942
    15  H    0.070887
    16  H    0.065176
    17  H    0.027891
    18  H    0.023284
    19  H    0.036711
 Sum of Mulliken charges =  -1.00000

 Dipole moment (field-independent basis, Debye):
    X=             -3.7010    Y=             -1.6146    Z=              0.2973  Tot=              4.0488
 Quadrupole moment (field-independent basis, Debye-Ang):
   XX=           -129.4736   YY=            -94.7981   ZZ=            -74.4045
   XY=             -4.5888   XZ=              1.3717   YZ=             -0.4320

 Normal termination of Gaussian 09 at Tue Jun 15 11:19:31 2021.
