 Gaussian 09, Revision D.01,
 Gaussian 09:  ES64L-G09RevD.01 24-Apr-2013

 -------------------
 #N B3LYP/STO-3G OPT
 -------------------

 -----
 1Naph
 -----
 Symbolic Z-matrix:
 Charge = -1 Multiplicity = 1

 SCF Done:  E(RB3LYP) =  -562.481268892     A.U. after   23 cycles
 SCF Done:  E(RB3LYP) =  -562.509325837     A.U. after   25 cycles
 SCF Done:  E(RB3LYP) =  -562.512148601     A.U. after   19 cycles
 SCF Done:  E(RB3LYP) =  -562.509375358     A.U. after   19 cycles
 SCF Done:  E(RB3LYP) =  -562.512457053     A.U. after   16 cycles
 SCF Done:  E(RB3LYP) =  -562.512591914     A.U. after   14 cycles
 SCF Done:  E(RB3LYP) =  -562.512607198     A.U. after   14 cycles
 SCF Done:  E(RB3LYP) =  -562.512615065     A.U. after   14 cycles
 SCF Done:  E(RB3LYP) =  -562.492650182     A.U. after   20 cycles
 SCF Done:  E(RB3LYP) =  -562.512617289     A.U. after   13 cycles
 SCF Done:  E(RB3LYP) =  -562.514576958     A.U. after   14 cycles
 SCF Done:  E(RB3LYP) =  -562.514698242     A.U. after    9 cycles
 SCF Done:  E(RB3LYP) =  -562.514774324     A.U. after   14 cycles
 SCF Done:  E(RB3LYP) =  -562.514846725     A.U. after   14 cycles
 SCF Done:  E(RB3LYP) =  -562.514987454     A.U. after   14 cycles
 SCF Done:  E(RB3LYP) =  -562.515107815     A.U. after   15 cycles
 SCF Done:  E(RB3LYP) =  -562.515264731     A.U. after   15 cycles
 SCF Done:  E(RB3LYP) =  -562.515292854     A.U. after   14 cycles
 SCF Done:  E(RB3LYP) =  -562.515390676     A.U. after   14 cycles
 SCF Done:  E(RB3LYP) =  -562.515394248     A.U. after   11 cycles
 Optimization completed.
    -- Stationary point found.

                         Standard orientation:
 ---------------------------------------------------------------------
 Center     Atomic      Atomic             Coordinates (Angstroms)
 Number     Number       Type             X           Y           Z
 ---------------------------------------------------------------------
      1          7           0       -4.217315   -0.850610   -0.081977
      2          6           0       -3.138969   -0.324223   -0.054532
      3          6           0       -1.847122    0.359966   -0.023989
      4          6           0       -1.832929    1.772214   -0.003562
      5          6           0       -0.601018    2.468106    0.014156
      6          6           0        0.605807    1.762658    0.022630
      7          6           0        0.637517    0.332573    0.010796
      8          6           0       -0.617918   -0.409780    0.006718
      9          6           0       -0.558152   -1.845323    0.195847
     10          6           0        0.615769   -2.600705    0.094054
     11          6           0        1.792399   -1.844763   -0.197554
     12          6           0        1.875435   -0.434243   -0.022459
     13          7           0        4.232927    0.783514    0.024651
     14          6           0        3.153560    0.253939    0.018956
     15          1           0       -2.781319    2.324732    0.006897
     16          1           0       -0.598535    3.565414    0.024660
     17          1           0        1.560729    2.306006    0.032212
     18          1           0       -1.507992   -2.312728    0.507458
     19          1           0        2.711561   -2.356270   -0.536306
 ---------------------------------------------------------------------

 The electronic state is 1-A.
 Alpha  occ. eigenvalues --  -13.98544 -13.95259  -9.89917  -9.89110  -9.87920
 Alpha  occ. eigenvalues --   -9.87285  -9.87231  -9.86993  -9.86854  -9.86269
 Alpha  occ. eigenvalues --   -9.85920  -9.82363  -9.80354  -9.70094  -0.72093
 Alpha  occ. eigenvalues --   -0.69678  -0.67315  -0.61430  -0.58642  -0.53750
 Alpha  occ. eigenvalues --   -0.51722  -0.44743  -0.41914  -0.40959  -0.35529
 Alpha  occ. eigenvalues --   -0.31573  -0.28910  -0.28113  -0.25768  -0.23631
 Alpha  occ. eigenvalues --   -0.21355  -0.20596  -0.19004  -0.16873  -0.16599
 Alpha  occ. eigenvalues --   -0.14698  -0.13911  -0.13488  -0.13082  -0.11778
 Alpha  occ. eigenvalues --   -0.10905  -0.09322  -0.06709  -0.02128   0.00972
 Alpha  occ. eigenvalues --    0.09340
 Alpha virt. eigenvalues --    0.16655   0.22154   0.23362   0.26296   0.28507
 Alpha virt. eigenvalues --    0.30018   0.35083   0.37230   0.43842   0.44614
 Alpha virt. eigenvalues --    0.47689   0.50614   0.53372   0.56314   0.57839

 Mulliken charges:
               1
     1  N   -0.240717
     2  C    0.051410
     3  C   -0.033252
     4  C   -0.091183
     5  C   -0.103976
     6  C   -0.091226
     7  C   -0.011945
     8  C   -0.008861
     9  C   -0.137182
    10  C   -0.179478
    11  C   -0.105493
    12  C   -0.057973
    13  N   -0.268558
    14  C    0.030238
    15  H    0.059666
    16  H    0.053878
    17  H    0.067047
    18  H    0.032566
    19  H    0.035039
 Sum of Mulliken charges =  -1.00000

 Dipole moment (field-independent basis, Debye):
    X=             -1.6850    Y=              4.4893    Z=             -0.1791  Tot=              4.7984
 Quadrupole moment (field-independent basis, Debye-Ang):
   XX=           -123.0994   YY=            -91.1990   ZZ=            -74.4648
   XY=             -7.8685   XZ=             -0.8204   YZ=              0.7796

 Normal termination of Gaussian 09 at Tue Jun 15 11:27:54 2021.
