 Gaussian 09, Revision D.01,
 Gaussian 09:  ES64L-G09RevD.01 24-Apr-2013

 -------------------
 #N B3LYP/STO-3G OPT
 -------------------

 -----
 1Naph
 -----
 Symbolic Z-matrix:
 Charge = -1 Multiplicity = 1

 SCF Done:  E(RB3LYP) =  -562.481725648     A.U. after   26 cycles
 SCF Done:  E(RB3LYP) =  -562.511807066     A.U. after   18 cycles
 SCF Done:  E(RB3LYP) =  -562.515537156     A.U. after   16 cycles
 SCF Done:  E(RB3LYP) =  -562.514769854     A.U. after   18 cycles
 SCF Done:  E(RB3LYP) =  -562.515696891     A.U. after   11 cycles
 SCF Done:  E(RB3LYP) =  -562.515805443     A.U. after   15 cycles
 SCF Done:  E(RB3LYP) =  -562.515868219     A.U. after   13 cycles
 SCF Done:  E(RB3LYP) =  -562.515879131     A.U. after   13 cycles
 SCF Done:  E(RB3LYP) =  -562.515889362     A.U. after   14 cycles
 SCF Done:  E(RB3LYP) =  -562.515902525     A.U. after   12 cycles
 SCF Done:  E(RB3LYP) =  -562.515905081     A.U. after   11 cycles
 SCF Done:  E(RB3LYP) =  -562.515905263     A.U. after   10 cycles
 Optimization completed.
    -- Stationary point found.

                         Standard orientation:
 ---------------------------------------------------------------------
 Center     Atomic      Atomic             Coordinates (Angstroms)
 Number     Number       Type             X           Y           Z
 ---------------------------------------------------------------------
      1          7           0        1.603987    3.448990   -0.122169
      2          6           0        1.582664    2.249995   -0.066036
      3          6           0        1.594979    0.790627   -0.005689
      4          6           0        2.830716    0.127950    0.115868
      5          6           0        2.879746   -1.289311    0.183117
      6          6           0        1.700400   -2.035253    0.144441
      7          6           0        0.413129   -1.418052   -0.001245
      8          6           0        0.347496    0.040805   -0.063449
      9          6           0       -0.937491    0.649974   -0.161023
     10          6           0       -2.090253   -0.169028   -0.076623
     11          6           0       -2.107910   -1.617797   -0.227459
     12          6           0       -0.810732   -2.161133   -0.207197
     13          7           0       -4.436127    1.062882    0.312781
     14          6           0       -3.380261    0.518025    0.144600
     15          1           0        3.757661    0.714371    0.158533
     16          1           0        3.852856   -1.790330    0.264290
     17          1           0        1.746571   -3.131969    0.204371
     18          1           0       -1.003494    1.743879   -0.245054
     19          1           0       -0.663525   -3.239859   -0.392251
 ---------------------------------------------------------------------

 The electronic state is 1-A.
 Alpha  occ. eigenvalues --  -13.98974 -13.94649  -9.90412  -9.89471  -9.88348
 Alpha  occ. eigenvalues --   -9.87405  -9.87195  -9.87105  -9.86135  -9.85288
 Alpha  occ. eigenvalues --   -9.84909  -9.84085  -9.79867  -9.69418  -0.72488
 Alpha  occ. eigenvalues --   -0.68796  -0.67476  -0.61424  -0.58862  -0.54319
 Alpha  occ. eigenvalues --   -0.50894  -0.45698  -0.42193  -0.40078  -0.34143
 Alpha  occ. eigenvalues --   -0.33323  -0.30376  -0.27805  -0.24035  -0.23402
 Alpha  occ. eigenvalues --   -0.21791  -0.20715  -0.19065  -0.17608  -0.16062
 Alpha  occ. eigenvalues --   -0.15190  -0.14303  -0.13468  -0.13308  -0.11183
 Alpha  occ. eigenvalues --   -0.09946  -0.08934  -0.07263  -0.01587   0.00886
 Alpha  occ. eigenvalues --    0.09677
 Alpha virt. eigenvalues --    0.16087   0.21753   0.25680   0.25895   0.29078
 Alpha virt. eigenvalues --    0.30180   0.33692   0.38373   0.43267   0.45260
 Alpha virt. eigenvalues --    0.48304   0.48461   0.53480   0.56579   0.57405

 Mulliken charges:
               1
     1  N   -0.238642
     2  C    0.048670
     3  C   -0.031761
     4  C   -0.089310
     5  C   -0.106256
     6  C   -0.089281
     7  C   -0.019104
     8  C   -0.015456
     9  C   -0.104723
    10  C   -0.052620
    11  C   -0.183709
    12  C   -0.140107
    13  N   -0.267430
    14  C    0.042844
    15  H    0.060477
    16  H    0.051892
    17  H    0.056910
    18  H    0.056967
    19  H    0.020638
 Sum of Mulliken charges =  -1.00000

 Dipole moment (field-independent basis, Debye):
    X=              7.0107    Y=             -1.3469    Z=              0.1393  Tot=              7.1403
 Quadrupole moment (field-independent basis, Debye-Ang):
   XX=           -114.8018   YY=            -98.4067   ZZ=            -74.6797
   XY=             -6.1920   XZ=              1.3851   YZ=             -1.0899

 Normal termination of Gaussian 09 at Tue Jun 15 11:20:05 2021.
