 Gaussian 09, Revision D.01,
 Gaussian 09:  ES64L-G09RevD.01 24-Apr-2013

 -------------------
 #N B3LYP/STO-3G OPT
 -------------------

 -----
 2Naph
 -----
 Symbolic Z-matrix:
 Charge = -1 Multiplicity = 1

 SCF Done:  E(RB3LYP) =  -562.480057225     A.U. after   29 cycles
 SCF Done:  E(RB3LYP) =  -562.512133897     A.U. after   22 cycles
 SCF Done:  E(RB3LYP) =  -562.515484646     A.U. after   18 cycles
 SCF Done:  E(RB3LYP) =  -562.513213342     A.U. after   20 cycles
 SCF Done:  E(RB3LYP) =  -562.515861166     A.U. after   14 cycles
 SCF Done:  E(RB3LYP) =  -562.515990632     A.U. after   15 cycles
 SCF Done:  E(RB3LYP) =  -562.515977811     A.U. after   15 cycles
 SCF Done:  E(RB3LYP) =  -562.516039391     A.U. after   15 cycles
 SCF Done:  E(RB3LYP) =  -562.516042633     A.U. after   12 cycles
 SCF Done:  E(RB3LYP) =  -562.516048216     A.U. after   16 cycles
 SCF Done:  E(RB3LYP) =  -562.516050888     A.U. after   15 cycles
 SCF Done:  E(RB3LYP) =  -562.516051595     A.U. after   12 cycles
 Optimization completed.
    -- Stationary point found.

                         Standard orientation:
 ---------------------------------------------------------------------
 Center     Atomic      Atomic             Coordinates (Angstroms)
 Number     Number       Type             X           Y           Z
 ---------------------------------------------------------------------
      1          7           0       -5.168429    0.374155   -0.000019
      2          6           0       -3.982424    0.188041    0.000015
      3          6           0       -1.631151    0.972507    0.000036
      4          6           0       -2.543889   -0.102689    0.000084
      5          6           0       -2.079764   -1.468368    0.000047
      6          6           0       -0.721669   -1.913936   -0.000047
      7          6           0        0.172430   -0.728704   -0.000065
      8          6           0       -0.238339    0.679023    0.000016
      9          6           0        0.758786    1.728990   -0.000012
     10          6           0        2.108637    1.440601   -0.000052
     11          6           0        2.548670    0.062652   -0.000005
     12          6           0        1.593059   -0.968178   -0.000041
     13          7           0        5.153023   -0.475862    0.000061
     14          6           0        3.976860   -0.237367    0.000029
     15          1           0       -1.980792    2.011969   -0.000032
     16          1           0       -2.891768   -2.217187   -0.000134
     17          1           0        0.423766    2.776184   -0.000031
     18          1           0        2.859484    2.241437   -0.000102
     19          1           0        1.929917   -2.015882   -0.000036
 ---------------------------------------------------------------------

 The electronic state is 1-A.
 Alpha  occ. eigenvalues --  -13.99067 -13.97271  -9.90082  -9.89639  -9.88057
 Alpha  occ. eigenvalues --   -9.87896  -9.87767  -9.87277  -9.87140  -9.86386
 Alpha  occ. eigenvalues --   -9.84633  -9.83229  -9.80005  -9.67099  -0.72703
 Alpha  occ. eigenvalues --   -0.71090  -0.66985  -0.62341  -0.57500  -0.55251
 Alpha  occ. eigenvalues --   -0.50712  -0.45565  -0.42232  -0.39201  -0.35972
 Alpha  occ. eigenvalues --   -0.31742  -0.30901  -0.26238  -0.25302  -0.24843
 Alpha  occ. eigenvalues --   -0.20841  -0.20344  -0.19117  -0.17616  -0.16491
 Alpha  occ. eigenvalues --   -0.15185  -0.14737  -0.14418  -0.13824  -0.12222
 Alpha  occ. eigenvalues --   -0.09833  -0.09750  -0.07136  -0.02923   0.01782
 Alpha  occ. eigenvalues --    0.10872
 Alpha virt. eigenvalues --    0.16981   0.21108   0.23835   0.25676   0.27488
 Alpha virt. eigenvalues --    0.30489   0.33318   0.37945   0.43041   0.45189
 Alpha virt. eigenvalues --    0.45644   0.51247   0.53235   0.54782   0.57004

 Mulliken charges:
               1
     1  N   -0.254364
     2  C    0.040184
     3  C   -0.109457
     4  C   -0.033533
     5  C   -0.134981
     6  C   -0.211197
     7  C   -0.046144
     8  C   -0.022885
     9  C   -0.094139
    10  C   -0.091331
    11  C   -0.045014
    12  C   -0.062128
    13  N   -0.244149
    14  C    0.044581
    15  H    0.048846
    16  H    0.025299
    17  H    0.054416
    18  H    0.059477
    19  H    0.076519
 Sum of Mulliken charges =  -1.00000

 Dipole moment (field-independent basis, Debye):
    X=              1.8501    Y=              4.0228    Z=              0.0000  Tot=              4.4279
 Quadrupole moment (field-independent basis, Debye-Ang):
   XX=           -145.7311   YY=            -83.0322   ZZ=            -74.1617
   XY=              2.8637   XZ=             -0.0005   YZ=             -0.0003

 Normal termination of Gaussian 09 at Tue Jun 15 11:44:46 2021.
