 Gaussian 09, Revision D.01,
 Gaussian 09:  ES64L-G09RevD.01 24-Apr-2013

 -------------------
 #N B3LYP/STO-3G OPT
 -------------------

 -----
 1Naph
 -----
 Symbolic Z-matrix:
 Charge = -1 Multiplicity = 1

 SCF Done:  E(RB3LYP) =  -562.481105368     A.U. after   22 cycles
 SCF Done:  E(RB3LYP) =  -562.508708480     A.U. after   17 cycles
 SCF Done:  E(RB3LYP) =  -562.510311415     A.U. after   19 cycles
 SCF Done:  E(RB3LYP) =  -562.509134730     A.U. after   19 cycles
 SCF Done:  E(RB3LYP) =  -562.511458290     A.U. after   13 cycles
 SCF Done:  E(RB3LYP) =  -562.511631339     A.U. after   15 cycles
 SCF Done:  E(RB3LYP) =  -562.511639918     A.U. after   15 cycles
 SCF Done:  E(RB3LYP) =  -562.511865650     A.U. after   14 cycles
 SCF Done:  E(RB3LYP) =  -562.511867989     A.U. after   12 cycles
 SCF Done:  E(RB3LYP) =  -562.511869943     A.U. after   11 cycles
 SCF Done:  E(RB3LYP) =  -562.511870767     A.U. after   11 cycles
 SCF Done:  E(RB3LYP) =  -562.511871215     A.U. after   11 cycles
 SCF Done:  E(RB3LYP) =  -562.511871378     A.U. after   10 cycles
 Optimization completed.
    -- Stationary point found.

                         Standard orientation:
 ---------------------------------------------------------------------
 Center     Atomic      Atomic             Coordinates (Angstroms)
 Number     Number       Type             X           Y           Z
 ---------------------------------------------------------------------
      1          7           0       -2.958197   -1.832703   -0.495214
      2          6           0       -1.812027   -1.565664   -0.257561
      3          6           0       -0.372728   -1.392913    0.013939
      4          6           0        0.364931   -2.606333    0.135120
      5          6           0        1.793121   -2.352505    0.290127
      6          6           0        2.415569   -1.133066    0.049549
      7          6           0        1.630394    0.073342   -0.045006
      8          6           0        0.178071   -0.040142    0.032360
      9          6           0       -0.573950    1.203004    0.055844
     10          6           0        0.072355    2.452001   -0.074815
     11          6           0        1.481703    2.531203   -0.189609
     12          6           0        2.241363    1.362267   -0.164661
     13          7           0       -3.197270    1.438777    0.430939
     14          6           0       -2.026290    1.251773    0.243035
     15          1           0        2.453346   -3.203994    0.538940
     16          1           0        3.509303   -1.032615   -0.017017
     17          1           0       -0.531813    3.368681   -0.083691
     18          1           0        1.965376    3.511156   -0.286796
     19          1           0        3.336990    1.416456   -0.231437
 ---------------------------------------------------------------------

 The electronic state is 1-A.
 Alpha  occ. eigenvalues --  -13.98122 -13.92501  -9.90194  -9.88556  -9.88170
 Alpha  occ. eigenvalues --   -9.87565  -9.87477  -9.87315  -9.86761  -9.83642
 Alpha  occ. eigenvalues --   -9.83318  -9.82691  -9.81448  -9.69055  -0.71396
 Alpha  occ. eigenvalues --   -0.67623  -0.66585  -0.61188  -0.58804  -0.53293
 Alpha  occ. eigenvalues --   -0.51962  -0.44773  -0.41915  -0.40185  -0.35267
 Alpha  occ. eigenvalues --   -0.31732  -0.29571  -0.27842  -0.25500  -0.23339
 Alpha  occ. eigenvalues --   -0.21362  -0.20425  -0.18761  -0.17250  -0.15176
 Alpha  occ. eigenvalues --   -0.14348  -0.13424  -0.12786  -0.12312  -0.09919
 Alpha  occ. eigenvalues --   -0.09119  -0.07054  -0.06323  -0.02187   0.01482
 Alpha  occ. eigenvalues --    0.10116
 Alpha virt. eigenvalues --    0.16927   0.22534   0.24490   0.26461   0.30868
 Alpha virt. eigenvalues --    0.32324   0.34875   0.37781   0.44064   0.45556
 Alpha virt. eigenvalues --    0.47890   0.50465   0.53316   0.55186   0.57467

 Mulliken charges:
               1
     1  N   -0.268603
     2  C    0.036658
     3  C   -0.081557
     4  C   -0.179355
     5  C   -0.120432
     6  C   -0.110577
     7  C   -0.022517
     8  C   -0.004694
     9  C   -0.028862
    10  C   -0.086727
    11  C   -0.106784
    12  C   -0.088750
    13  N   -0.226401
    14  C    0.055253
    15  H    0.026206
    16  H    0.036688
    17  H    0.062498
    18  H    0.052824
    19  H    0.055132
 Sum of Mulliken charges =  -1.00000

 Dipole moment (field-independent basis, Debye):
    X=              5.6529    Y=              5.7119    Z=              0.0038  Tot=              8.0362
 Quadrupole moment (field-independent basis, Debye-Ang):
   XX=           -103.4854   YY=            -96.8291   ZZ=            -75.0183
   XY=             -1.2511   XZ=             -0.8859   YZ=             -1.5962

 Normal termination of Gaussian 09 at Tue Jun 15 11:21:02 2021.
