 Gaussian 09, Revision D.01,
 Gaussian 09:  ES64L-G09RevD.01 24-Apr-2013

 -------------------
 #N B3LYP/STO-3G OPT
 -------------------

 -----
 2Naph
 -----
 Symbolic Z-matrix:
 Charge = -1 Multiplicity = 1

 SCF Done:  E(RB3LYP) =  -562.434705519     A.U. after   20 cycles
 SCF Done:  E(RB3LYP) =  -562.483182637     A.U. after   19 cycles
 SCF Done:  E(RB3LYP) =  -562.510304320     A.U. after   19 cycles
 SCF Done:  E(RB3LYP) =  -562.522415680     A.U. after   19 cycles
 SCF Done:  E(RB3LYP) =  -562.524380838     A.U. after   18 cycles
 SCF Done:  E(RB3LYP) =  -562.526561390     A.U. after   17 cycles
 SCF Done:  E(RB3LYP) =  -562.527622804     A.U. after   16 cycles
 SCF Done:  E(RB3LYP) =  -562.527698869     A.U. after   14 cycles
 SCF Done:  E(RB3LYP) =  -562.527708647     A.U. after   12 cycles
 SCF Done:  E(RB3LYP) =  -562.527709175     A.U. after   11 cycles
 SCF Done:  E(RB3LYP) =  -562.527709402     A.U. after   10 cycles
 Optimization completed.
    -- Stationary point found.

                         Standard orientation:
 ---------------------------------------------------------------------
 Center     Atomic      Atomic             Coordinates (Angstroms)
 Number     Number       Type             X           Y           Z
 ---------------------------------------------------------------------
      1          7           0        4.536457   -0.923241   -0.001062
      2          6           0        3.355454   -0.712902    0.000586
      3          6           0        1.034358   -1.628413    0.000161
      4          6           0        1.897948   -0.470110    0.000536
      5          6           0        1.512363    0.911755    0.000609
      6          6           0        0.157489    1.276794    0.000204
      7          6           0       -0.848005    0.221213   -0.000031
      8          6           0       -0.383882   -1.156366   -0.000076
      9          6           0       -1.411356   -2.169883   -0.000079
     10          6           0       -2.771149   -1.872364   -0.000105
     11          6           0       -3.195548   -0.510692   -0.000098
     12          6           0       -2.254765    0.512303   -0.000057
     13          7           0       -0.538592    3.839403   -0.000299
     14          6           0       -0.228965    2.679261   -0.000151
     15          1           0        2.275487    1.706040    0.000725
     16          1           0       -1.076560   -3.217575   -0.000014
     17          1           0       -3.521067   -2.674042   -0.000073
     18          1           0       -4.268152   -0.273666   -0.000101
     19          1           0       -2.578420    1.562538   -0.000007
 ---------------------------------------------------------------------

 The electronic state is 1-A.
 Alpha  occ. eigenvalues --  -13.97103 -13.93819  -9.87982  -9.87689  -9.87325
 Alpha  occ. eigenvalues --   -9.87138  -9.86716  -9.86585  -9.86430  -9.85900
 Alpha  occ. eigenvalues --   -9.84657  -9.83540  -9.83515  -9.69325  -0.71151
 Alpha  occ. eigenvalues --   -0.68314  -0.66696  -0.62372  -0.56948  -0.54562
 Alpha  occ. eigenvalues --   -0.52587  -0.43203  -0.42282  -0.40790  -0.35590
 Alpha  occ. eigenvalues --   -0.32449  -0.30451  -0.25589  -0.24955  -0.23348
 Alpha  occ. eigenvalues --   -0.22318  -0.20599  -0.19648  -0.16108  -0.15751
 Alpha  occ. eigenvalues --   -0.13979  -0.13961  -0.13767  -0.12277  -0.10400
 Alpha  occ. eigenvalues --   -0.09360  -0.08527  -0.06519  -0.03458   0.01406
 Alpha  occ. eigenvalues --    0.09458
 Alpha virt. eigenvalues --    0.18854   0.21251   0.24076   0.26984   0.29736
 Alpha virt. eigenvalues --    0.30657   0.35104   0.37984   0.44771   0.45814
 Alpha virt. eigenvalues --    0.47972   0.50050   0.52405   0.55995   0.56226

 Mulliken charges:
               1
     1  N   -0.277107
     2  C    0.038004
     3  C   -0.179373
     4  C   -0.083342
     5  C   -0.072756
     6  C   -0.055570
     7  C   -0.012789
     8  C   -0.047921
     9  C   -0.078680
    10  C   -0.109615
    11  C   -0.096553
    12  C   -0.097822
    13  N   -0.256227
    14  C    0.039603
    15  H    0.061460
    16  H    0.066146
    17  H    0.048613
    18  H    0.051515
    19  H    0.062415
 Sum of Mulliken charges =  -1.00000

 Dipole moment (field-independent basis, Debye):
    X=             -5.5834    Y=              0.3877    Z=              0.0022  Tot=              5.5969
 Quadrupole moment (field-independent basis, Debye-Ang):
   XX=           -109.4139   YY=           -102.6035   ZZ=            -74.1467
   XY=             12.7039   XZ=              0.0091   YZ=              0.0000

 Normal termination of Gaussian 09 at Tue Jun 15 11:13:23 2021.
