 Gaussian 09, Revision D.01,
 Gaussian 09:  ES64L-G09RevD.01 24-Apr-2013

 -------------------
 #N B3LYP/STO-3G OPT
 -------------------

 -----
 2Naph
 -----
 Symbolic Z-matrix:
 Charge = -1 Multiplicity = 1

 SCF Done:  E(RB3LYP) =  -562.475608060     A.U. after   22 cycles
 SCF Done:  E(RB3LYP) =  -562.502346717     A.U. after   17 cycles
 SCF Done:  E(RB3LYP) =  -562.505120223     A.U. after   19 cycles
 SCF Done:  E(RB3LYP) =  -562.505105590     A.U. after   16 cycles
 SCF Done:  E(RB3LYP) =  -562.505156652     A.U. after   14 cycles
 SCF Done:  E(RB3LYP) =  -562.505305898     A.U. after   14 cycles
 SCF Done:  E(RB3LYP) =  -562.505299762     A.U. after   14 cycles
 SCF Done:  E(RB3LYP) =  -562.505309336     A.U. after   13 cycles
 SCF Done:  E(RB3LYP) =  -562.505309994     A.U. after   11 cycles
 SCF Done:  E(RB3LYP) =  -562.505310216     A.U. after   10 cycles
 Optimization completed.
    -- Stationary point found.

                         Standard orientation:
 ---------------------------------------------------------------------
 Center     Atomic      Atomic             Coordinates (Angstroms)
 Number     Number       Type             X           Y           Z
 ---------------------------------------------------------------------
      1          7           0        4.203971   -0.533806   -0.067858
      2          6           0        3.003903   -0.586510   -0.043063
      3          6           0        0.725277    0.475864    0.037260
      4          6           0        1.554257   -0.691804    0.002143
      5          6           0        0.943283   -1.989587    0.007407
      6          6           0       -0.439299   -2.116116    0.013586
      7          6           0       -1.307827   -0.968407    0.000770
      8          6           0       -0.717929    0.372912    0.001547
      9          6           0       -1.607654    1.499004   -0.175004
     10          6           0       -3.008142    1.417036   -0.134520
     11          6           0       -3.510139    0.091107    0.120291
     12          6           0       -2.734005   -1.072436    0.009697
     13          7           0        1.884252    2.868144    0.132045
     14          6           0        1.356660    1.789885    0.088856
     15          1           0        1.588854   -2.876897   -0.001383
     16          1           0       -0.893110   -3.116534    0.020144
     17          1           0       -1.106399    2.449765   -0.424472
     18          1           0       -4.577732   -0.044472    0.374727
     19          1           0       -3.179484   -2.077923    0.007848
 ---------------------------------------------------------------------

 The electronic state is 1-A.
 Alpha  occ. eigenvalues --  -13.98743 -13.98288  -9.90627  -9.90296  -9.89282
 Alpha  occ. eigenvalues --   -9.88748  -9.87876  -9.87025  -9.86597  -9.86455
 Alpha  occ. eigenvalues --   -9.82986  -9.81418  -9.79648  -9.69397  -0.72425
 Alpha  occ. eigenvalues --   -0.71408  -0.67330  -0.61351  -0.58762  -0.53900
 Alpha  occ. eigenvalues --   -0.50786  -0.45907  -0.41925  -0.39772  -0.34368
 Alpha  occ. eigenvalues --   -0.33777  -0.29338  -0.27484  -0.23950  -0.23888
 Alpha  occ. eigenvalues --   -0.21408  -0.21065  -0.18954  -0.16452  -0.16026
 Alpha  occ. eigenvalues --   -0.15196  -0.15079  -0.14594  -0.13110  -0.12475
 Alpha  occ. eigenvalues --   -0.11477  -0.09298  -0.06880  -0.01763   0.01108
 Alpha  occ. eigenvalues --    0.10042
 Alpha virt. eigenvalues --    0.15522   0.21289   0.25596   0.25896   0.26876
 Alpha virt. eigenvalues --    0.30470   0.32021   0.38370   0.42169   0.45026
 Alpha virt. eigenvalues --    0.47053   0.50560   0.54492   0.57036   0.57971

 Mulliken charges:
               1
     1  N   -0.237880
     2  C    0.043816
     3  C   -0.023113
     4  C   -0.031974
     5  C   -0.094284
     6  C   -0.094692
     7  C   -0.020884
     8  C   -0.009525
     9  C   -0.141675
    10  C   -0.182687
    11  C   -0.118713
    12  C   -0.117065
    13  N   -0.231097
    14  C    0.053534
    15  H    0.060660
    16  H    0.055046
    17  H    0.031498
    18  H    0.024387
    19  H    0.034647
 Sum of Mulliken charges =  -1.00000

 Dipole moment (field-independent basis, Debye):
    X=              0.2503    Y=             -5.0933    Z=              0.2257  Tot=              5.1044
 Quadrupole moment (field-independent basis, Debye-Ang):
   XX=           -123.5957   YY=            -90.2493   ZZ=            -74.5455
   XY=              4.1927   XZ=             -1.0435   YZ=              0.1464

 Normal termination of Gaussian 09 at Tue Jun 15 11:13:36 2021.
