 Gaussian 09, Revision D.01,
 Gaussian 09:  ES64L-G09RevD.01 24-Apr-2013

 -------------------
 #N B3LYP/STO-3G OPT
 -------------------

 -----
 2Naph
 -----
 Symbolic Z-matrix:
 Charge = -1 Multiplicity = 1

 SCF Done:  E(RB3LYP) =  -562.485892010     A.U. after   22 cycles
 SCF Done:  E(RB3LYP) =  -562.514398157     A.U. after   16 cycles
 SCF Done:  E(RB3LYP) =  -562.517621919     A.U. after   18 cycles
 SCF Done:  E(RB3LYP) =  -562.515414819     A.U. after   19 cycles
 SCF Done:  E(RB3LYP) =  -562.517993801     A.U. after   12 cycles
 SCF Done:  E(RB3LYP) =  -562.518152480     A.U. after   14 cycles
 SCF Done:  E(RB3LYP) =  -562.518169086     A.U. after   13 cycles
 SCF Done:  E(RB3LYP) =  -562.518189481     A.U. after   13 cycles
 SCF Done:  E(RB3LYP) =  -562.518201316     A.U. after   11 cycles
 SCF Done:  E(RB3LYP) =  -562.518207170     A.U. after   12 cycles
 SCF Done:  E(RB3LYP) =  -562.518207876     A.U. after   10 cycles
 Optimization completed.
    -- Stationary point found.

                         Standard orientation:
 ---------------------------------------------------------------------
 Center     Atomic      Atomic             Coordinates (Angstroms)
 Number     Number       Type             X           Y           Z
 ---------------------------------------------------------------------
      1          7           0       -5.130336    0.430757    0.409018
      2          6           0       -3.978519    0.163138    0.204472
      3          6           0       -1.670084    0.916104   -0.226596
      4          6           0       -2.565298   -0.172761   -0.066159
      5          6           0       -2.199255   -1.574911   -0.174551
      6          6           0       -0.807813   -1.764148   -0.211315
      7          6           0        0.181680   -0.717066   -0.054725
      8          6           0       -0.268843    0.670177   -0.151703
      9          6           0        0.718846    1.724731   -0.147653
     10          6           0        2.071046    1.452151   -0.046322
     11          6           0        2.526617    0.084945    0.060104
     12          6           0        1.585559   -0.962911    0.075054
     13          7           0        5.130810   -0.423279    0.222363
     14          6           0        3.954567   -0.195971    0.143949
     15          1           0       -2.025417    1.949855   -0.343305
     16          1           0       -0.391612   -2.769469   -0.399043
     17          1           0        0.374570    2.765541   -0.221034
     18          1           0        2.811733    2.261798   -0.046225
     19          1           0        1.936402   -2.000950    0.162612
 ---------------------------------------------------------------------

 The electronic state is 1-A.
 Alpha  occ. eigenvalues --  -13.99314 -13.95012  -9.90585  -9.89885  -9.88064
 Alpha  occ. eigenvalues --   -9.87955  -9.87415  -9.86888  -9.86280  -9.85668
 Alpha  occ. eigenvalues --   -9.85239  -9.84406  -9.80316  -9.69978  -0.72972
 Alpha  occ. eigenvalues --   -0.69201  -0.67610  -0.61962  -0.58301  -0.55120
 Alpha  occ. eigenvalues --   -0.51144  -0.45938  -0.41896  -0.40058  -0.36083
 Alpha  occ. eigenvalues --   -0.33188  -0.29336  -0.27012  -0.25444  -0.24110
 Alpha  occ. eigenvalues --   -0.22000  -0.20865  -0.19499  -0.17408  -0.16712
 Alpha  occ. eigenvalues --   -0.15739  -0.14236  -0.14012  -0.13659  -0.11619
 Alpha  occ. eigenvalues --   -0.09875  -0.08962  -0.08168  -0.01767   0.00574
 Alpha  occ. eigenvalues --    0.09250
 Alpha virt. eigenvalues --    0.16360   0.21145   0.24301   0.25370   0.29482
 Alpha virt. eigenvalues --    0.30599   0.32779   0.38285   0.42809   0.44329
 Alpha virt. eigenvalues --    0.47703   0.50872   0.52933   0.54925   0.57118

 Mulliken charges:
               1
     1  N   -0.268739
     2  C    0.041347
     3  C   -0.103619
     4  C   -0.053939
     5  C   -0.180218
     6  C   -0.137140
     7  C   -0.020517
     8  C   -0.021280
     9  C   -0.093275
    10  C   -0.094414
    11  C   -0.040777
    12  C   -0.078907
    13  N   -0.244237
    14  C    0.042586
    15  H    0.047048
    16  H    0.023419
    17  H    0.056979
    18  H    0.059648
    19  H    0.066035
 Sum of Mulliken charges =  -1.00000

 Dipole moment (field-independent basis, Debye):
    X=              4.1924    Y=              2.9115    Z=             -0.4332  Tot=              5.1225
 Quadrupole moment (field-independent basis, Debye-Ang):
   XX=           -154.8847   YY=            -78.8506   ZZ=            -74.7864
   XY=             -1.6293   XZ=              1.1354   YZ=             -1.0816

 Normal termination of Gaussian 09 at Tue Jun 15 11:13:58 2021.
