 Gaussian 09, Revision D.01,
 Gaussian 09:  ES64L-G09RevD.01 24-Apr-2013

 -------------------
 #N B3LYP/STO-3G OPT
 -------------------

 -----
 2Naph
 -----
 Symbolic Z-matrix:
 Charge = -1 Multiplicity = 1

 SCF Done:  E(RB3LYP) =  -562.477141073     A.U. after   23 cycles
 SCF Done:  E(RB3LYP) =  -562.509002949     A.U. after   20 cycles
 SCF Done:  E(RB3LYP) =  -562.513004103     A.U. after   19 cycles
 SCF Done:  E(RB3LYP) =  -562.512263928     A.U. after   20 cycles
 SCF Done:  E(RB3LYP) =  -562.513324182     A.U. after   13 cycles
 SCF Done:  E(RB3LYP) =  -562.513786270     A.U. after   17 cycles
 SCF Done:  E(RB3LYP) =  -562.514047050     A.U. after   17 cycles
 SCF Done:  E(RB3LYP) =  -562.514175790     A.U. after   17 cycles
 SCF Done:  E(RB3LYP) =  -562.514191478     A.U. after   16 cycles
 SCF Done:  E(RB3LYP) =  -562.514224376     A.U. after   13 cycles
 SCF Done:  E(RB3LYP) =  -562.514231530     A.U. after   14 cycles
 SCF Done:  E(RB3LYP) =  -562.514232273     A.U. after   14 cycles
 Optimization completed.
    -- Stationary point found.

                         Standard orientation:
 ---------------------------------------------------------------------
 Center     Atomic      Atomic             Coordinates (Angstroms)
 Number     Number       Type             X           Y           Z
 ---------------------------------------------------------------------
      1          7           0        4.462594    1.057872    0.000975
      2          6           0        3.366996    0.567108    0.000633
      3          6           0        0.891297    0.689017   -0.000376
      4          6           0        2.059154   -0.099378   -0.000161
      5          6           0        1.983417   -1.540619   -0.000354
      6          6           0        0.798360   -2.334043   -0.001065
      7          6           0       -0.386113   -1.439110   -0.000518
      8          6           0       -0.370136    0.028323   -0.000546
      9          6           0       -1.632464    0.762659    0.000024
     10          6           0       -2.858318    0.080288    0.000906
     11          6           0       -2.885383   -1.341156    0.000962
     12          6           0       -1.688845   -2.057979    0.000000
     13          7           0       -1.658586    3.425366   -0.000620
     14          6           0       -1.640944    2.225146   -0.000408
     15          1           0        0.945257    1.784046   -0.000427
     16          1           0        2.968116   -2.040948    0.000392
     17          1           0       -3.797062    0.650685    0.001497
     18          1           0       -3.852467   -1.859695    0.001725
     19          1           0       -1.714027   -3.158286   -0.000258
 ---------------------------------------------------------------------

 The electronic state is 1-A.
 Alpha  occ. eigenvalues --  -13.98916 -13.96853  -9.90212  -9.89395  -9.88557
 Alpha  occ. eigenvalues --   -9.87537  -9.87358  -9.86760  -9.86668  -9.86393
 Alpha  occ. eigenvalues --   -9.84251  -9.83038  -9.79591  -9.66690  -0.72460
 Alpha  occ. eigenvalues --   -0.70648  -0.66907  -0.61850  -0.57923  -0.54669
 Alpha  occ. eigenvalues --   -0.50204  -0.45421  -0.42023  -0.40043  -0.34090
 Alpha  occ. eigenvalues --   -0.31581  -0.30964  -0.27874  -0.24495  -0.23450
 Alpha  occ. eigenvalues --   -0.20964  -0.20389  -0.19195  -0.16787  -0.16545
 Alpha  occ. eigenvalues --   -0.14557  -0.14450  -0.13938  -0.13537  -0.11802
 Alpha  occ. eigenvalues --   -0.10248  -0.09582  -0.06327  -0.02815   0.02066
 Alpha  occ. eigenvalues --    0.11141
 Alpha virt. eigenvalues --    0.16630   0.21257   0.25776   0.25923   0.27930
 Alpha virt. eigenvalues --    0.29049   0.34380   0.37778   0.43210   0.46011
 Alpha virt. eigenvalues --    0.46042   0.49610   0.53296   0.56688   0.57941

 Mulliken charges:
               1
     1  N   -0.253717
     2  C    0.041388
     3  C   -0.111003
     4  C   -0.032438
     5  C   -0.136820
     6  C   -0.215291
     7  C   -0.044643
     8  C   -0.017025
     9  C   -0.032398
    10  C   -0.083607
    11  C   -0.112027
    12  C   -0.072433
    13  N   -0.240164
    14  C    0.047670
    15  H    0.058997
    16  H    0.024121
    17  H    0.060951
    18  H    0.050946
    19  H    0.067493
 Sum of Mulliken charges =  -1.00000

 Dipole moment (field-independent basis, Debye):
    X=             -4.9767    Y=              0.2535    Z=              0.0021  Tot=              4.9832
 Quadrupole moment (field-independent basis, Debye-Ang):
   XX=           -105.9718   YY=           -105.8471   ZZ=            -74.1671
   XY=              3.8827   XZ=             -0.0061   YZ=             -0.0060

 Normal termination of Gaussian 09 at Tue Jun 15 11:13:58 2021.
