 Gaussian 09, Revision D.01,
 Gaussian 09:  ES64L-G09RevD.01 24-Apr-2013

 -------------------
 #N B3LYP/STO-3G OPT
 -------------------

 -----
 2Naph
 -----
 Symbolic Z-matrix:
 Charge = -1 Multiplicity = 1

 SCF Done:  E(RB3LYP) =  -562.475445431     A.U. after   38 cycles
 SCF Done:  E(RB3LYP) =  -562.503741678     A.U. after   18 cycles
 SCF Done:  E(RB3LYP) =  -562.506818989     A.U. after   16 cycles
 SCF Done:  E(RB3LYP) =  -562.506618783     A.U. after   15 cycles
 SCF Done:  E(RB3LYP) =  -562.506935374     A.U. after   15 cycles
 SCF Done:  E(RB3LYP) =  -562.507031456     A.U. after   14 cycles
 SCF Done:  E(RB3LYP) =  -562.507030052     A.U. after   13 cycles
 SCF Done:  E(RB3LYP) =  -562.507034839     A.U. after   12 cycles
 SCF Done:  E(RB3LYP) =  -562.507035689     A.U. after   11 cycles
 SCF Done:  E(RB3LYP) =  -562.507035945     A.U. after   11 cycles
 Optimization completed.
    -- Stationary point found.

                         Standard orientation:
 ---------------------------------------------------------------------
 Center     Atomic      Atomic             Coordinates (Angstroms)
 Number     Number       Type             X           Y           Z
 ---------------------------------------------------------------------
      1          7           0       -4.506977   -0.896289   -0.033707
      2          6           0       -3.330828   -0.656760   -0.021234
      3          6           0       -0.953543   -1.416632    0.008152
      4          6           0       -1.903090   -0.367029   -0.005014
      5          6           0       -1.449470    0.991401   -0.008987
      6          6           0       -0.076697    1.282446    0.020419
      7          6           0        0.934402    0.223869    0.016189
      8          6           0        0.443712   -1.156170    0.017838
      9          6           0        1.434201   -2.204180    0.043733
     10          6           0        2.785901   -1.879195    0.085597
     11          6           0        3.357474   -0.547733   -0.139807
     12          6           0        2.340896    0.450280   -0.098389
     13          7           0        0.626077    3.849643    0.061299
     14          6           0        0.330450    2.686232    0.043759
     15          1           0       -1.304842   -2.458044    0.010540
     16          1           0       -2.185266    1.805935   -0.033724
     17          1           0        1.076977   -3.245003    0.052255
     18          1           0        3.481500   -2.726850    0.234989
     19          1           0        2.617479    1.511315   -0.230737
 ---------------------------------------------------------------------

 The electronic state is 1-A.
 Alpha  occ. eigenvalues --  -13.99502 -13.98584  -9.90834  -9.90248  -9.90092
 Alpha  occ. eigenvalues --   -9.89265  -9.89143  -9.88535  -9.86796  -9.86691
 Alpha  occ. eigenvalues --   -9.83472  -9.81120  -9.79177  -9.67957  -0.73144
 Alpha  occ. eigenvalues --   -0.72072  -0.67895  -0.61505  -0.59563  -0.53605
 Alpha  occ. eigenvalues --   -0.51455  -0.45301  -0.42974  -0.40233  -0.35381
 Alpha  occ. eigenvalues --   -0.31655  -0.30048  -0.28942  -0.25512  -0.22798
 Alpha  occ. eigenvalues --   -0.21652  -0.20719  -0.19073  -0.17676  -0.17442
 Alpha  occ. eigenvalues --   -0.15963  -0.14972  -0.14688  -0.14044  -0.12964
 Alpha  occ. eigenvalues --   -0.10550  -0.09350  -0.07331  -0.02213   0.01295
 Alpha  occ. eigenvalues --    0.10883
 Alpha virt. eigenvalues --    0.16302   0.19267   0.24892   0.25983   0.26584
 Alpha virt. eigenvalues --    0.29145   0.33376   0.37669   0.41865   0.45142
 Alpha virt. eigenvalues --    0.45535   0.52020   0.53027   0.54197   0.57517

 Mulliken charges:
               1
     1  N   -0.242399
     2  C    0.043944
     3  C   -0.076790
     4  C   -0.043816
     5  C   -0.077147
     6  C   -0.032673
     7  C   -0.008981
     8  C   -0.025328
     9  C   -0.112188
    10  C   -0.120184
    11  C   -0.196304
    12  C   -0.146276
    13  N   -0.238200
    14  C    0.052378
    15  H    0.065174
    16  H    0.070888
    17  H    0.036709
    18  H    0.023296
    19  H    0.027897
 Sum of Mulliken charges =  -1.00000

 Dipole moment (field-independent basis, Debye):
    X=             -3.7007    Y=             -1.6148    Z=              0.2979  Tot=              4.0486
 Quadrupole moment (field-independent basis, Debye-Ang):
   XX=           -129.4729   YY=            -94.7981   ZZ=            -74.4045
   XY=             -4.5894   XZ=              1.3724   YZ=             -0.4316

 Normal termination of Gaussian 09 at Tue Jun 15 11:13:17 2021.
