 Gaussian 09, Revision D.01,
 Gaussian 09:  ES64L-G09RevD.01 24-Apr-2013

 -------------------
 #N B3LYP/STO-3G OPT
 -------------------

 -----
 2Naph
 -----
 Symbolic Z-matrix:
 Charge = -1 Multiplicity = 1

 SCF Done:  E(RB3LYP) =  -562.480161499     A.U. after   28 cycles
 SCF Done:  E(RB3LYP) =  -562.510306499     A.U. after   22 cycles
 SCF Done:  E(RB3LYP) =  -562.513695005     A.U. after   17 cycles
 SCF Done:  E(RB3LYP) =  -562.513718668     A.U. after   16 cycles
 SCF Done:  E(RB3LYP) =  -562.513741542     A.U. after   16 cycles
 SCF Done:  E(RB3LYP) =  -562.513841683     A.U. after   15 cycles
 SCF Done:  E(RB3LYP) =  -562.513855185     A.U. after   14 cycles
 SCF Done:  E(RB3LYP) =  -562.510076299     A.U. after   19 cycles
 SCF Done:  E(RB3LYP) =  -562.513888457     A.U. after   17 cycles
 SCF Done:  E(RB3LYP) =  -562.506934961     A.U. after   19 cycles
 SCF Done:  E(RB3LYP) =  -562.514907479     A.U. after   14 cycles
 SCF Done:  E(RB3LYP) =  -562.515563246     A.U. after   17 cycles
 SCF Done:  E(RB3LYP) =  -562.516485668     A.U. after   16 cycles
 SCF Done:  E(RB3LYP) =  -562.514295516     A.U. after   17 cycles
 SCF Done:  E(RB3LYP) =  -562.516778161     A.U. after   11 cycles
 SCF Done:  E(RB3LYP) =  -562.517250249     A.U. after   14 cycles
 SCF Done:  E(RB3LYP) =  -562.517525132     A.U. after   15 cycles
 SCF Done:  E(RB3LYP) =  -562.517621389     A.U. after   13 cycles
 SCF Done:  E(RB3LYP) =  -562.517626409     A.U. after   10 cycles
 SCF Done:  E(RB3LYP) =  -562.517626733     A.U. after    9 cycles
 Optimization completed.
    -- Stationary point found.

                         Standard orientation:
 ---------------------------------------------------------------------
 Center     Atomic      Atomic             Coordinates (Angstroms)
 Number     Number       Type             X           Y           Z
 ---------------------------------------------------------------------
      1          7           0        4.904893   -0.297382   -0.032574
      2          6           0        3.704707   -0.268298   -0.024104
      3          6           0        1.555292    0.996744   -0.045144
      4          6           0        2.248030   -0.234605   -0.025427
      5          6           0        1.499323   -1.462965    0.004750
      6          6           0        0.112489   -1.434165    0.024323
      7          6           0       -0.618425   -0.193916    0.012724
      8          6           0        0.132785    1.058694   -0.002499
      9          6           0       -0.622015    2.293601    0.195933
     10          6           0       -1.999441    2.370269    0.031073
     11          6           0       -2.669011    1.153774   -0.251082
     12          6           0       -2.065408   -0.124820   -0.016594
     13          7           0       -3.549122   -2.321886    0.084055
     14          6           0       -2.856383   -1.339772    0.052100
     15          1           0        2.127313    1.934906   -0.065715
     16          1           0        2.039397   -2.418440    0.013133
     17          1           0       -0.454977   -2.374432    0.041106
     18          1           0       -0.036262    3.151255    0.569153
     19          1           0       -3.697522    1.154326   -0.654363
 ---------------------------------------------------------------------

 The electronic state is 1-A.
 Alpha  occ. eigenvalues --  -13.98963 -13.95299  -9.90184  -9.89580  -9.87906
 Alpha  occ. eigenvalues --   -9.87644  -9.87437  -9.86855  -9.86317  -9.86294
 Alpha  occ. eigenvalues --   -9.85978  -9.82667  -9.80882  -9.70908  -0.72672
 Alpha  occ. eigenvalues --   -0.69713  -0.67377  -0.61815  -0.58093  -0.54569
 Alpha  occ. eigenvalues --   -0.51723  -0.44619  -0.42135  -0.41348  -0.35020
 Alpha  occ. eigenvalues --   -0.32917  -0.28590  -0.27884  -0.25729  -0.23696
 Alpha  occ. eigenvalues --   -0.21787  -0.20761  -0.19520  -0.17511  -0.16269
 Alpha  occ. eigenvalues --   -0.15448  -0.13979  -0.13697  -0.13518  -0.12163
 Alpha  occ. eigenvalues --   -0.10985  -0.08934  -0.07345  -0.02123   0.00653
 Alpha  occ. eigenvalues --    0.08593
 Alpha virt. eigenvalues --    0.17351   0.20025   0.24307   0.25649   0.28396
 Alpha virt. eigenvalues --    0.29611   0.34918   0.37355   0.43213   0.43909
 Alpha virt. eigenvalues --    0.47807   0.51514   0.53889   0.56184   0.57537

 Mulliken charges:
               1
     1  N   -0.245925
     2  C    0.042089
     3  C   -0.081196
     4  C   -0.042744
     5  C   -0.090753
     6  C   -0.096267
     7  C   -0.006703
     8  C   -0.020422
     9  C   -0.133018
    10  C   -0.176670
    11  C   -0.105253
    12  C   -0.058989
    13  N   -0.268157
    14  C    0.030131
    15  H    0.064545
    16  H    0.061362
    17  H    0.067620
    18  H    0.024975
    19  H    0.035375
 Sum of Mulliken charges =  -1.00000

 Dipole moment (field-independent basis, Debye):
    X=              2.3425    Y=             -1.0401    Z=             -0.1969  Tot=              2.5706
 Quadrupole moment (field-independent basis, Debye-Ang):
   XX=           -131.0494   YY=            -93.4843   ZZ=            -74.4606
   XY=             -0.6857   XZ=              1.0142   YZ=             -0.1094

 Normal termination of Gaussian 09 at Tue Jun 15 11:20:21 2021.
