 Gaussian 09, Revision D.01,
 Gaussian 09:  ES64L-G09RevD.01 24-Apr-2013

 -------------------
 #N B3LYP/STO-3G OPT
 -------------------

 -----
 1Naph
 -----
 Symbolic Z-matrix:
 Charge = -1 Multiplicity = 1

 SCF Done:  E(RB3LYP) =  -562.488434226     A.U. after   23 cycles
 SCF Done:  E(RB3LYP) =  -562.515659816     A.U. after   16 cycles
 SCF Done:  E(RB3LYP) =  -562.517209239     A.U. after   19 cycles
 SCF Done:  E(RB3LYP) =  -562.517100534     A.U. after   19 cycles
 SCF Done:  E(RB3LYP) =  -562.518910502     A.U. after   13 cycles
 SCF Done:  E(RB3LYP) =  -562.519296193     A.U. after   14 cycles
 SCF Done:  E(RB3LYP) =  -562.519171895     A.U. after   14 cycles
 SCF Done:  E(RB3LYP) =  -562.519314292     A.U. after   13 cycles
 SCF Done:  E(RB3LYP) =  -562.519315648     A.U. after   10 cycles
 Optimization completed.
    -- Stationary point found.

                         Standard orientation:
 ---------------------------------------------------------------------
 Center     Atomic      Atomic             Coordinates (Angstroms)
 Number     Number       Type             X           Y           Z
 ---------------------------------------------------------------------
      1          7           0       -4.186224   -0.816737    0.271873
      2          6           0       -3.143769   -0.235253    0.145985
      3          6           0       -1.882026    0.506819   -0.031288
      4          6           0       -1.948236    1.926650   -0.053339
      5          6           0       -0.613204    2.505875   -0.175580
      6          6           0        0.591915    1.823768   -0.010629
      7          6           0        0.606799    0.386808   -0.012839
      8          6           0       -0.666736   -0.309284   -0.103229
      9          6           0       -0.659085   -1.739466   -0.176064
     10          6           0        0.528072   -2.474818   -0.121948
     11          6           0        1.776217   -1.810389   -0.026691
     12          6           0        1.824054   -0.403108    0.025682
     13          7           0        4.207302    0.770749    0.192885
     14          6           0        3.126083    0.255487    0.114591
     15          1           0       -0.532844    3.594424   -0.354401
     16          1           0        1.556615    2.347625    0.057315
     17          1           0       -1.623793   -2.260144   -0.256577
     18          1           0        0.502266   -3.571643   -0.153059
     19          1           0        2.709701   -2.386888    0.005516
 ---------------------------------------------------------------------

 The electronic state is 1-A.
 Alpha  occ. eigenvalues --  -13.99326 -13.93141  -9.90703  -9.89842  -9.88535
 Alpha  occ. eigenvalues --   -9.87616  -9.87480  -9.87204  -9.86788  -9.84127
 Alpha  occ. eigenvalues --   -9.83753  -9.82814  -9.81707  -9.69073  -0.72847
 Alpha  occ. eigenvalues --   -0.68190  -0.67337  -0.61304  -0.59098  -0.53542
 Alpha  occ. eigenvalues --   -0.51983  -0.45159  -0.42179  -0.40252  -0.35318
 Alpha  occ. eigenvalues --   -0.32435  -0.29495  -0.28060  -0.25252  -0.23768
 Alpha  occ. eigenvalues --   -0.21015  -0.20790  -0.18849  -0.17936  -0.16197
 Alpha  occ. eigenvalues --   -0.15336  -0.14148  -0.13293  -0.12833  -0.10770
 Alpha  occ. eigenvalues --   -0.10100  -0.08146  -0.06815  -0.02230   0.01118
 Alpha  occ. eigenvalues --    0.09956
 Alpha virt. eigenvalues --    0.16348   0.21963   0.25066   0.25545   0.29870
 Alpha virt. eigenvalues --    0.30941   0.33535   0.38129   0.43108   0.45799
 Alpha virt. eigenvalues --    0.48159   0.50793   0.52133   0.56474   0.57245

 Mulliken charges:
               1
     1  N   -0.282109
     2  C    0.035996
     3  C   -0.080882
     4  C   -0.184992
     5  C   -0.115342
     6  C   -0.111888
     7  C   -0.013632
     8  C   -0.012525
     9  C   -0.087734
    10  C   -0.102825
    11  C   -0.088896
    12  C   -0.031212
    13  N   -0.239264
    14  C    0.049774
    15  H    0.028634
    16  H    0.048560
    17  H    0.071668
    18  H    0.055304
    19  H    0.061365
 Sum of Mulliken charges =  -1.00000

 Dipole moment (field-independent basis, Debye):
    X=              4.4929    Y=             -3.5255    Z=             -0.5296  Tot=              5.7355
 Quadrupole moment (field-independent basis, Debye-Ang):
   XX=           -130.9112   YY=            -84.7280   ZZ=            -74.4634
   XY=             -1.9605   XZ=              1.0128   YZ=              0.3272

 Normal termination of Gaussian 09 at Tue Jun 15 11:17:11 2021.
