 Gaussian 09, Revision D.01,
 Gaussian 09:  ES64L-G09RevD.01 24-Apr-2013

 -------------------
 #N B3LYP/STO-3G OPT
 -------------------

 -----
 2Naph
 -----
 Symbolic Z-matrix:
 Charge = -1 Multiplicity = 1

 SCF Done:  E(RB3LYP) =  -562.465285283     A.U. after   24 cycles
 SCF Done:  E(RB3LYP) =  -562.498127094     A.U. after   20 cycles
 SCF Done:  E(RB3LYP) =  -562.503571539     A.U. after   21 cycles
 SCF Done:  E(RB3LYP) =  -562.505276926     A.U. after   17 cycles
 SCF Done:  E(RB3LYP) =  -562.504548257     A.U. after   21 cycles
 SCF Done:  E(RB3LYP) =  -562.505680708     A.U. after   15 cycles
 SCF Done:  E(RB3LYP) =  -562.506114851     A.U. after   19 cycles
 SCF Done:  E(RB3LYP) =  -562.506161937     A.U. after   19 cycles
 SCF Done:  E(RB3LYP) =  -562.506100602     A.U. after   20 cycles
 SCF Done:  E(RB3LYP) =  -562.506231178     A.U. after   20 cycles
 SCF Done:  E(RB3LYP) =  -562.506239516     A.U. after   16 cycles
 SCF Done:  E(RB3LYP) =  -562.506240422     A.U. after   12 cycles
 SCF Done:  E(RB3LYP) =  -562.506240534     A.U. after   13 cycles
 Optimization completed.
    -- Stationary point found.

                         Standard orientation:
 ---------------------------------------------------------------------
 Center     Atomic      Atomic             Coordinates (Angstroms)
 Number     Number       Type             X           Y           Z
 ---------------------------------------------------------------------
      1          7           0        4.224516   -0.458901   -0.000015
      2          6           0        3.026255   -0.533312    0.000113
      3          6           0        0.714435    0.460177    0.000142
      4          6           0        1.575744   -0.669375    0.000014
      5          6           0        0.987582   -1.986863   -0.000289
      6          6           0       -0.388078   -2.142318   -0.000301
      7          6           0       -1.279727   -1.006351    0.000149
      8          6           0       -0.724697    0.350862    0.000086
      9          6           0       -1.466666    1.632392   -0.000263
     10          6           0       -2.868501    1.332881   -0.000609
     11          6           0       -3.469237    0.039848    0.000248
     12          6           0       -2.699613   -1.129238    0.000549
     13          7           0        1.839971    2.882784    0.000281
     14          6           0        1.264678    1.827401   -0.000002
     15          1           0        1.653395   -2.859617   -0.000589
     16          1           0       -0.817477   -3.154783   -0.000671
     17          1           0       -3.588490    2.171344   -0.001357
     18          1           0       -4.567549   -0.057909    0.000802
     19          1           0       -3.164331   -2.122849    0.000928
 ---------------------------------------------------------------------

 The electronic state is 1-A.
 Alpha  occ. eigenvalues --  -13.99051 -13.96800  -9.90646  -9.90370  -9.89546
 Alpha  occ. eigenvalues --   -9.88102  -9.87655  -9.87190  -9.85898  -9.83697
 Alpha  occ. eigenvalues --   -9.83117  -9.82861  -9.78580  -9.66641  -0.72475
 Alpha  occ. eigenvalues --   -0.70009  -0.66893  -0.61325  -0.58116  -0.54287
 Alpha  occ. eigenvalues --   -0.49977  -0.45309  -0.42022  -0.39300  -0.34371
 Alpha  occ. eigenvalues --   -0.32476  -0.29988  -0.27505  -0.25067  -0.23142
 Alpha  occ. eigenvalues --   -0.20973  -0.18934  -0.18478  -0.16658  -0.15688
 Alpha  occ. eigenvalues --   -0.15339  -0.14111  -0.13923  -0.12899  -0.10800
 Alpha  occ. eigenvalues --   -0.10350  -0.08901  -0.05906  -0.02693   0.02534
 Alpha  occ. eigenvalues --    0.11363
 Alpha virt. eigenvalues --    0.16371   0.21090   0.25781   0.27377   0.28418
 Alpha virt. eigenvalues --    0.30249   0.32809   0.38396   0.42181   0.46309
 Alpha virt. eigenvalues --    0.47205   0.50530   0.52911   0.55404   0.58555

 Mulliken charges:
               1
     1  N   -0.233995
     2  C    0.048755
     3  C    0.003585
     4  C   -0.036153
     5  C   -0.090945
     6  C   -0.092728
     7  C   -0.024544
     8  C   -0.037222
     9  C   -0.207862
    10  C   -0.146586
    11  C   -0.097876
    12  C   -0.126372
    13  N   -0.230950
    14  C    0.072653
    15  H    0.060889
    16  H    0.054206
    17  H    0.015057
    18  H    0.034648
    19  H    0.035441
 Sum of Mulliken charges =  -1.00000

 Dipole moment (field-independent basis, Debye):
    X=             -1.5891    Y=             -6.0058    Z=             -0.0004  Tot=              6.2125
 Quadrupole moment (field-independent basis, Debye-Ang):
   XX=           -111.4464   YY=            -93.2447   ZZ=            -74.1668
   XY=             -0.2013   XZ=             -0.0022   YZ=              0.0000

 Normal termination of Gaussian 09 at Tue Jun 15 11:15:56 2021.
