 Gaussian 09, Revision D.01,
 Gaussian 09:  ES64L-G09RevD.01 24-Apr-2013

 -------------------
 #N B3LYP/STO-3G OPT
 -------------------

 -----
 2Naph
 -----
 Symbolic Z-matrix:
 Charge = -1 Multiplicity = 1

 SCF Done:  E(RB3LYP) =  -562.483214470     A.U. after   21 cycles
 SCF Done:  E(RB3LYP) =  -562.512164237     A.U. after   17 cycles
 SCF Done:  E(RB3LYP) =  -562.516373557     A.U. after   18 cycles
 SCF Done:  E(RB3LYP) =  -562.514938309     A.U. after   18 cycles
 SCF Done:  E(RB3LYP) =  -562.516785768     A.U. after   12 cycles
 SCF Done:  E(RB3LYP) =  -562.517402792     A.U. after   16 cycles
 SCF Done:  E(RB3LYP) =  -562.517715149     A.U. after   16 cycles
 SCF Done:  E(RB3LYP) =  -562.517853195     A.U. after   17 cycles
 SCF Done:  E(RB3LYP) =  -562.518014310     A.U. after   14 cycles
 SCF Done:  E(RB3LYP) =  -562.518062190     A.U. after   15 cycles
 SCF Done:  E(RB3LYP) =  -562.518064738     A.U. after   12 cycles
 SCF Done:  E(RB3LYP) =  -562.518064966     A.U. after   11 cycles
 Optimization completed.
    -- Stationary point found.

                         Standard orientation:
 ---------------------------------------------------------------------
 Center     Atomic      Atomic             Coordinates (Angstroms)
 Number     Number       Type             X           Y           Z
 ---------------------------------------------------------------------
      1          7           0        4.770404   -1.554476    0.129455
      2          6           0        3.743250   -0.938866    0.058716
      3          6           0        1.301988   -0.921053   -0.094706
      4          6           0        2.484010   -0.161362   -0.032577
      5          6           0        2.613827    1.312702   -0.085919
      6          6           0        1.307418    1.888701   -0.062045
      7          6           0        0.049680    1.205857    0.010731
      8          6           0        0.034750   -0.251928   -0.049711
      9          6           0       -1.215125   -0.947891   -0.053161
     10          6           0       -2.434526   -0.253680    0.009158
     11          6           0       -2.427778    1.192406    0.074291
     12          6           0       -1.230088    1.881692    0.081851
     13          7           0       -4.748238   -1.562652    0.005651
     14          6           0       -3.702120   -0.974350    0.007404
     15          1           0        1.316938   -2.019357   -0.160179
     16          1           0        1.213887    2.988631   -0.118367
     17          1           0       -1.216868   -2.046220   -0.100715
     18          1           0       -3.387457    1.723845    0.116319
     19          1           0       -1.233371    2.979640    0.133002
 ---------------------------------------------------------------------

 The electronic state is 1-A.
 Alpha  occ. eigenvalues --  -13.99884 -13.94970  -9.91090  -9.90415  -9.89070
 Alpha  occ. eigenvalues --   -9.88480  -9.87389  -9.87095  -9.86457  -9.85541
 Alpha  occ. eigenvalues --   -9.85248  -9.84965  -9.79663  -9.68143  -0.73462
 Alpha  occ. eigenvalues --   -0.69144  -0.68000  -0.62083  -0.58845  -0.54892
 Alpha  occ. eigenvalues --   -0.51637  -0.45145  -0.42763  -0.40661  -0.35072
 Alpha  occ. eigenvalues --   -0.33584  -0.30339  -0.26959  -0.25623  -0.23567
 Alpha  occ. eigenvalues --   -0.22832  -0.21291  -0.18976  -0.17765  -0.17010
 Alpha  occ. eigenvalues --   -0.15799  -0.14586  -0.14246  -0.13569  -0.11213
 Alpha  occ. eigenvalues --   -0.09910  -0.08839  -0.08261  -0.02113   0.00892
 Alpha  occ. eigenvalues --    0.10367
 Alpha virt. eigenvalues --    0.16708   0.19489   0.24875   0.26152   0.28841
 Alpha virt. eigenvalues --    0.29960   0.33428   0.38066   0.42150   0.45154
 Alpha virt. eigenvalues --    0.47349   0.49898   0.52507   0.54154   0.56595

 Mulliken charges:
               1
     1  N   -0.268164
     2  C    0.042775
     3  C   -0.095785
     4  C   -0.054692
     5  C   -0.198502
     6  C   -0.142444
     7  C   -0.017031
     8  C   -0.027803
     9  C   -0.074062
    10  C   -0.040843
    11  C   -0.092200
    12  C   -0.091803
    13  N   -0.241170
    14  C    0.044314
    15  H    0.050499
    16  H    0.019327
    17  H    0.067351
    18  H    0.060752
    19  H    0.059480
 Sum of Mulliken charges =  -1.00000

 Dipole moment (field-independent basis, Debye):
    X=             -5.6186    Y=              0.2774    Z=             -0.0083  Tot=              5.6255
 Quadrupole moment (field-independent basis, Debye-Ang):
   XX=           -150.2795   YY=            -84.2988   ZZ=            -74.2380
   XY=             -8.2170   XZ=             -0.4017   YZ=              0.9179

 Normal termination of Gaussian 09 at Tue Jun 15 11:13:34 2021.
