 Gaussian 09, Revision D.01,
 Gaussian 09:  ES64L-G09RevD.01 24-Apr-2013

 -------------------
 #N B3LYP/STO-3G OPT
 -------------------

 -----
 2Naph
 -----
 Symbolic Z-matrix:
 Charge = -1 Multiplicity = 1

 SCF Done:  E(RB3LYP) =  -562.479130710     A.U. after   23 cycles
 SCF Done:  E(RB3LYP) =  -562.511793507     A.U. after   18 cycles
 SCF Done:  E(RB3LYP) =  -562.515824472     A.U. after   13 cycles
 SCF Done:  E(RB3LYP) =  -562.515679061     A.U. after   15 cycles
 SCF Done:  E(RB3LYP) =  -562.515915649     A.U. after    9 cycles
 SCF Done:  E(RB3LYP) =  -562.515981651     A.U. after   13 cycles
 SCF Done:  E(RB3LYP) =  -562.516036308     A.U. after   12 cycles
 Optimization completed.
    -- Stationary point found.

                         Standard orientation:
 ---------------------------------------------------------------------
 Center     Atomic      Atomic             Coordinates (Angstroms)
 Number     Number       Type             X           Y           Z
 ---------------------------------------------------------------------
      1          7           0       -4.426993    1.125030    0.000071
      2          6           0       -3.355169    0.585873   -0.000003
      3          6           0       -0.868930    0.663904    0.000008
      4          6           0       -2.055355   -0.085151   -0.000013
      5          6           0       -1.992230   -1.525131   -0.000048
      6          6           0       -0.754241   -2.151877   -0.000044
      7          6           0        0.506257   -1.441881   -0.000004
      8          6           0        0.410649    0.017604    0.000000
      9          6           0        1.650223    0.772938   -0.000004
     10          6           0        2.864027    0.050570    0.000005
     11          6           0        2.880176   -1.366720    0.000044
     12          6           0        1.752525   -2.260094    0.000031
     13          7           0        1.671715    3.426227   -0.000040
     14          6           0        1.651194    2.225081   -0.000007
     15          1           0       -0.917521    1.762435    0.000030
     16          1           0       -2.926508   -2.100330   -0.000076
     17          1           0       -0.703031   -3.250816   -0.000066
     18          1           0        3.804685    0.625063   -0.000001
     19          1           0        3.894564   -1.805850    0.000110
 ---------------------------------------------------------------------

 The electronic state is 1-A.
 Alpha  occ. eigenvalues --  -13.99844 -13.96345  -9.91031  -9.90256  -9.87998
 Alpha  occ. eigenvalues --   -9.87277  -9.87153  -9.86928  -9.86714  -9.86082
 Alpha  occ. eigenvalues --   -9.85210  -9.83162  -9.79436  -9.67166  -0.73238
 Alpha  occ. eigenvalues --   -0.70536  -0.67054  -0.62129  -0.57370  -0.54708
 Alpha  occ. eigenvalues --   -0.51433  -0.44541  -0.42232  -0.39759  -0.35535
 Alpha  occ. eigenvalues --   -0.32761  -0.30618  -0.25708  -0.24941  -0.23127
 Alpha  occ. eigenvalues --   -0.21080  -0.20762  -0.19956  -0.17568  -0.17022
 Alpha  occ. eigenvalues --   -0.15791  -0.14093  -0.14018  -0.13043  -0.12085
 Alpha  occ. eigenvalues --   -0.09763  -0.09127  -0.06822  -0.03344   0.02007
 Alpha  occ. eigenvalues --    0.10851
 Alpha virt. eigenvalues --    0.17042   0.21330   0.24187   0.25225   0.27618
 Alpha virt. eigenvalues --    0.29186   0.35468   0.37013   0.42464   0.45759
 Alpha virt. eigenvalues --    0.46645   0.51943   0.53099   0.54328   0.57092

 Mulliken charges:
               1
     1  N   -0.236713
     2  C    0.049077
     3  C   -0.080204
     4  C   -0.031661
     5  C   -0.101628
     6  C   -0.078799
     7  C   -0.044144
     8  C   -0.015703
     9  C   -0.060162
    10  C   -0.084473
    11  C   -0.146808
    12  C   -0.207823
    13  N   -0.260669
    14  C    0.034719
    15  H    0.074146
    16  H    0.058024
    17  H    0.067670
    18  H    0.047538
    19  H    0.017611
 Sum of Mulliken charges =  -1.00000

 Dipole moment (field-independent basis, Debye):
    X=             -1.3276    Y=             -0.2510    Z=             -0.0001  Tot=              1.3511
 Quadrupole moment (field-independent basis, Debye-Ang):
   XX=           -110.0565   YY=           -106.4912   ZZ=            -74.1472
   XY=              9.6226   XZ=              0.0005   YZ=              0.0004

 Normal termination of Gaussian 09 at Tue Jun 15 11:12:10 2021.
