 Gaussian 09, Revision D.01,
 Gaussian 09:  ES64L-G09RevD.01 24-Apr-2013

 -------------------
 #N B3LYP/STO-3G OPT
 -------------------

 -----
 1Naph
 -----
 Symbolic Z-matrix:
 Charge = -1 Multiplicity = 1

 SCF Done:  E(RB3LYP) =  -562.486155619     A.U. after   36 cycles
 SCF Done:  E(RB3LYP) =  -562.518312339     A.U. after   20 cycles
 SCF Done:  E(RB3LYP) =  -562.521853441     A.U. after   17 cycles
 SCF Done:  E(RB3LYP) =  -562.518611536     A.U. after   18 cycles
 SCF Done:  E(RB3LYP) =  -562.522302252     A.U. after   14 cycles
 SCF Done:  E(RB3LYP) =  -562.522483118     A.U. after   14 cycles
 SCF Done:  E(RB3LYP) =  -562.522492578     A.U. after   14 cycles
 SCF Done:  E(RB3LYP) =  -562.522456545     A.U. after   14 cycles
 SCF Done:  E(RB3LYP) =  -562.522506884     A.U. after   14 cycles
 SCF Done:  E(RB3LYP) =  -562.522507120     A.U. after   11 cycles
 Optimization completed.
    -- Stationary point found.

                         Standard orientation:
 ---------------------------------------------------------------------
 Center     Atomic      Atomic             Coordinates (Angstroms)
 Number     Number       Type             X           Y           Z
 ---------------------------------------------------------------------
      1          7           0        3.417607   -2.451184    0.000701
      2          6           0        2.778645   -1.435155    0.000390
      3          6           0        2.010740   -0.190080    0.000113
      4          6           0        2.703959    1.033150    0.000261
      5          6           0        1.988180    2.257713    0.000005
      6          6           0        0.590877    2.244063   -0.000231
      7          6           0       -0.191318    1.036544   -0.000251
      8          6           0        0.555287   -0.221326   -0.000302
      9          6           0       -0.185832   -1.449596   -0.000843
     10          6           0       -1.572156   -1.394401   -0.000918
     11          6           0       -2.261078   -0.125506   -0.000228
     12          6           0       -1.675900    1.188247   -0.000099
     13          7           0       -4.933957   -0.274554    0.001019
     14          6           0       -3.735806   -0.212537    0.000493
     15          1           0        3.802426    1.033841    0.000603
     16          1           0        2.541329    3.205358    0.000059
     17          1           0        0.036572    3.194806   -0.000322
     18          1           0        0.348509   -2.407017   -0.001241
     19          1           0       -2.147963   -2.333513   -0.001478
 ---------------------------------------------------------------------

 The electronic state is 1-A.
 Alpha  occ. eigenvalues --  -13.99137 -13.93050  -9.90389  -9.89648  -9.88818
 Alpha  occ. eigenvalues --   -9.87070  -9.87007  -9.86714  -9.85019  -9.83965
 Alpha  occ. eigenvalues --   -9.83705  -9.83434  -9.82465  -9.68096  -0.72708
 Alpha  occ. eigenvalues --   -0.67734  -0.67112  -0.61658  -0.58187  -0.54423
 Alpha  occ. eigenvalues --   -0.51161  -0.44996  -0.42291  -0.39774  -0.34734
 Alpha  occ. eigenvalues --   -0.31946  -0.30492  -0.28118  -0.25449  -0.22336
 Alpha  occ. eigenvalues --   -0.20665  -0.20557  -0.20193  -0.16877  -0.15528
 Alpha  occ. eigenvalues --   -0.14860  -0.14302  -0.13694  -0.12673  -0.10318
 Alpha  occ. eigenvalues --   -0.10070  -0.07960  -0.06398  -0.03040   0.01930
 Alpha  occ. eigenvalues --    0.10240
 Alpha virt. eigenvalues --    0.17034   0.21316   0.25692   0.26568   0.29787
 Alpha virt. eigenvalues --    0.31197   0.32635   0.38976   0.43154   0.46031
 Alpha virt. eigenvalues --    0.48337   0.49641   0.52032   0.56522   0.57123

 Mulliken charges:
               1
     1  N   -0.241295
     2  C    0.048161
     3  C   -0.033792
     4  C   -0.082769
     5  C   -0.111449
     6  C   -0.070779
     7  C   -0.045967
     8  C   -0.012330
     9  C   -0.122651
    10  C   -0.086114
    11  C   -0.085426
    12  C   -0.193540
    13  N   -0.283228
    14  C    0.035366
    15  H    0.061518
    16  H    0.052119
    17  H    0.069963
    18  H    0.051748
    19  H    0.050465
 Sum of Mulliken charges =  -1.00000

 Dipole moment (field-independent basis, Debye):
    X=              5.8666    Y=              0.6337    Z=             -0.0020  Tot=              5.9007
 Quadrupole moment (field-independent basis, Debye-Ang):
   XX=           -130.8405   YY=            -86.3840   ZZ=            -74.1603
   XY=             13.8681   XZ=              0.0061   YZ=              0.0036

 Normal termination of Gaussian 09 at Tue Jun 15 11:17:58 2021.
