 Gaussian 09, Revision D.01,
 Gaussian 09:  ES64L-G09RevD.01 24-Apr-2013

 -------------------
 #N B3LYP/STO-3G OPT
 -------------------

 -----
 1Naph
 -----
 Symbolic Z-matrix:
 Charge = -1 Multiplicity = 1

 SCF Done:  E(RB3LYP) =  -562.483448328     A.U. after   23 cycles
 SCF Done:  E(RB3LYP) =  -562.513859331     A.U. after   17 cycles
 SCF Done:  E(RB3LYP) =  -562.517553447     A.U. after   17 cycles
 SCF Done:  E(RB3LYP) =  -562.517068333     A.U. after   18 cycles
 SCF Done:  E(RB3LYP) =  -562.517754806     A.U. after   11 cycles
 SCF Done:  E(RB3LYP) =  -562.518151466     A.U. after   16 cycles
 SCF Done:  E(RB3LYP) =  -562.518217038     A.U. after   13 cycles
 SCF Done:  E(RB3LYP) =  -562.518037832     A.U. after   16 cycles
 SCF Done:  E(RB3LYP) =  -562.518251697     A.U. after   14 cycles
 SCF Done:  E(RB3LYP) =  -562.518254770     A.U. after   12 cycles
 SCF Done:  E(RB3LYP) =  -562.518255093     A.U. after   11 cycles
 Optimization completed.
    -- Stationary point found.

                         Standard orientation:
 ---------------------------------------------------------------------
 Center     Atomic      Atomic             Coordinates (Angstroms)
 Number     Number       Type             X           Y           Z
 ---------------------------------------------------------------------
      1          7           0       -3.487386   -2.391021    0.000093
      2          6           0       -2.823799   -1.389907    0.000183
      3          6           0       -2.038208   -0.168054    0.000022
      4          6           0       -2.674790    1.098886   -0.000006
      5          6           0       -1.929657    2.298644   -0.000129
      6          6           0       -0.494439    2.441696   -0.000059
      7          6           0        0.111990    1.077529    0.000041
      8          6           0       -0.594197   -0.202738   -0.000078
      9          6           0        0.145420   -1.441860   -0.000182
     10          6           0        1.528309   -1.455119   -0.000176
     11          6           0        2.258853   -0.210833    0.000029
     12          6           0        1.547977    1.003569    0.000098
     13          7           0        4.918109   -0.244304    0.000103
     14          6           0        3.718222   -0.226719    0.000081
     15          1           0       -3.776934    1.118046    0.000275
     16          1           0       -2.545355    3.216169   -0.000029
     17          1           0       -0.412154   -2.389050   -0.000340
     18          1           0        2.082951   -2.402645   -0.000336
     19          1           0        2.102344    1.954194    0.000105
 ---------------------------------------------------------------------

 The electronic state is 1-A.
 Alpha  occ. eigenvalues --  -13.99006 -13.96421  -9.90016  -9.89581  -9.88104
 Alpha  occ. eigenvalues --   -9.87395  -9.87291  -9.87055  -9.86915  -9.86761
 Alpha  occ. eigenvalues --   -9.85425  -9.83222  -9.79603  -9.67720  -0.72635
 Alpha  occ. eigenvalues --   -0.70658  -0.66993  -0.62260  -0.57377  -0.54732
 Alpha  occ. eigenvalues --   -0.51731  -0.44212  -0.42488  -0.39965  -0.35397
 Alpha  occ. eigenvalues --   -0.32758  -0.30856  -0.26013  -0.25248  -0.23233
 Alpha  occ. eigenvalues --   -0.20702  -0.20449  -0.19632  -0.17687  -0.17264
 Alpha  occ. eigenvalues --   -0.15401  -0.13920  -0.13873  -0.13239  -0.12185
 Alpha  occ. eigenvalues --   -0.09841  -0.09222  -0.06884  -0.03446   0.01859
 Alpha  occ. eigenvalues --    0.10504
 Alpha virt. eigenvalues --    0.18098   0.19877   0.24655   0.25735   0.27544
 Alpha virt. eigenvalues --    0.29268   0.35111   0.37324   0.43254   0.45630
 Alpha virt. eigenvalues --    0.46211   0.51222   0.53565   0.54835   0.56015

 Mulliken charges:
               1
     1  N   -0.262501
     2  C    0.035243
     3  C   -0.061706
     4  C   -0.082928
     5  C   -0.148061
     6  C   -0.199575
     7  C   -0.050170
     8  C   -0.011360
     9  C   -0.095956
    10  C   -0.087893
    11  C   -0.045624
    12  C   -0.061578
    13  N   -0.243860
    14  C    0.044992
    15  H    0.047913
    16  H    0.018862
    17  H    0.065787
    18  H    0.061743
    19  H    0.076670
 Sum of Mulliken charges =  -1.00000

 Dipole moment (field-independent basis, Debye):
    X=              0.0636    Y=             -2.0534    Z=             -0.0001  Tot=              2.0544
 Quadrupole moment (field-independent basis, Debye-Ang):
   XX=           -122.8220   YY=            -97.6615   ZZ=            -74.1404
   XY=             -7.6542   XZ=             -0.0011   YZ=              0.0010

 Normal termination of Gaussian 09 at Tue Jun 15 11:18:02 2021.
