 Gaussian 09, Revision D.01,
 Gaussian 09:  ES64L-G09RevD.01 24-Apr-2013

 -------------------
 #N B3LYP/STO-3G OPT
 -------------------

 -----
 2Naph
 -----
 Symbolic Z-matrix:
 Charge = -1 Multiplicity = 1

 SCF Done:  E(RB3LYP) =  -562.471408736     A.U. after   35 cycles
 SCF Done:  E(RB3LYP) =  -562.502491841     A.U. after   18 cycles
 SCF Done:  E(RB3LYP) =  -562.505960151     A.U. after   15 cycles
 SCF Done:  E(RB3LYP) =  -562.505450289     A.U. after   18 cycles
 SCF Done:  E(RB3LYP) =  -562.506096572     A.U. after   12 cycles
 SCF Done:  E(RB3LYP) =  -562.506195708     A.U. after   15 cycles
 SCF Done:  E(RB3LYP) =  -562.506231865     A.U. after   14 cycles
 SCF Done:  E(RB3LYP) =  -562.506216924     A.U. after   14 cycles
 SCF Done:  E(RB3LYP) =  -562.506252000     A.U. after   13 cycles
 SCF Done:  E(RB3LYP) =  -562.506260085     A.U. after   11 cycles
 SCF Done:  E(RB3LYP) =  -562.506263290     A.U. after   12 cycles
 Optimization completed.
    -- Stationary point found.

                         Standard orientation:
 ---------------------------------------------------------------------
 Center     Atomic      Atomic             Coordinates (Angstroms)
 Number     Number       Type             X           Y           Z
 ---------------------------------------------------------------------
      1          7           0       -3.584600   -2.082300   -0.027771
      2          6           0       -2.559803   -1.456523   -0.021643
      3          6           0       -0.076292   -1.418553   -0.058684
      4          6           0       -1.298943   -0.726358   -0.026261
      5          6           0       -1.293320    0.731040    0.003759
      6          6           0       -0.066656    1.412585    0.021762
      7          6           0        1.185734    0.718485    0.014838
      8          6           0        1.190169   -0.745503   -0.016373
      9          6           0        2.456865   -1.422909    0.107541
     10          6           0        3.732147   -0.810824    0.058410
     11          6           0        3.626781    0.630880   -0.114999
     12          6           0        2.454310    1.385201    0.012521
     13          7           0       -3.565657    2.109210    0.032921
     14          6           0       -2.546654    1.474925    0.019659
     15          1           0       -0.089430   -2.517154   -0.095204
     16          1           0       -0.067991    2.511478    0.044325
     17          1           0        2.372722   -2.509057    0.293233
     18          1           0        4.549169    1.206600   -0.322269
     19          1           0        2.461297    2.485107    0.040693
 ---------------------------------------------------------------------

 The electronic state is 1-A.
 Alpha  occ. eigenvalues --  -13.99762 -13.99446  -9.91456  -9.91271  -9.90208
 Alpha  occ. eigenvalues --   -9.89899  -9.88636  -9.88035  -9.86704  -9.86130
 Alpha  occ. eigenvalues --   -9.83351  -9.81129  -9.79370  -9.67836  -0.73333
 Alpha  occ. eigenvalues --   -0.72588  -0.67953  -0.61725  -0.59081  -0.54074
 Alpha  occ. eigenvalues --   -0.51519  -0.44603  -0.43563  -0.40016  -0.35142
 Alpha  occ. eigenvalues --   -0.33663  -0.29721  -0.26820  -0.25570  -0.24162
 Alpha  occ. eigenvalues --   -0.22125  -0.20576  -0.18741  -0.16999  -0.16875
 Alpha  occ. eigenvalues --   -0.15994  -0.15770  -0.15552  -0.14131  -0.13626
 Alpha  occ. eigenvalues --   -0.10592  -0.09056  -0.08044  -0.01877   0.01160
 Alpha  occ. eigenvalues --    0.10770
 Alpha virt. eigenvalues --    0.17134   0.17566   0.24965   0.25501   0.27450
 Alpha virt. eigenvalues --    0.29649   0.30923   0.38557   0.40915   0.44759
 Alpha virt. eigenvalues --    0.46479   0.50937   0.53628   0.56326   0.57860

 Mulliken charges:
               1
     1  N   -0.233571
     2  C    0.046685
     3  C   -0.078561
     4  C   -0.031574
     5  C   -0.031493
     6  C   -0.077650
     7  C   -0.023650
     8  C   -0.019509
     9  C   -0.141128
    10  C   -0.203865
    11  C   -0.118364
    12  C   -0.113905
    13  N   -0.232337
    14  C    0.048386
    15  H    0.068066
    16  H    0.066585
    17  H    0.017656
    18  H    0.021987
    19  H    0.036240
 Sum of Mulliken charges =  -1.00000

 Dipole moment (field-independent basis, Debye):
    X=             -1.4347    Y=              1.7542    Z=             -0.1696  Tot=              2.2725
 Quadrupole moment (field-independent basis, Debye-Ang):
   XX=           -143.1571   YY=            -85.7360   ZZ=            -74.3220
   XY=              7.4900   XZ=             -0.6945   YZ=              0.2191

 Normal termination of Gaussian 09 at Tue Jun 15 11:13:28 2021.
