 Gaussian 09, Revision D.01,
 Gaussian 09:  ES64L-G09RevD.01 24-Apr-2013

 -------------------
 #N B3LYP/STO-3G OPT
 -------------------

 -----
 1Naph
 -----
 Symbolic Z-matrix:
 Charge = -1 Multiplicity = 1

 SCF Done:  E(RB3LYP) =  -562.473872141     A.U. after   38 cycles
 SCF Done:  E(RB3LYP) =  -562.501876308     A.U. after   18 cycles
 SCF Done:  E(RB3LYP) =  -562.504810132     A.U. after   17 cycles
 SCF Done:  E(RB3LYP) =  -562.503219315     A.U. after   18 cycles
 SCF Done:  E(RB3LYP) =  -562.505042497     A.U. after   13 cycles
 SCF Done:  E(RB3LYP) =  -562.505220481     A.U. after   14 cycles
 SCF Done:  E(RB3LYP) =  -562.505235412     A.U. after   14 cycles
 SCF Done:  E(RB3LYP) =  -562.505265914     A.U. after   14 cycles
 SCF Done:  E(RB3LYP) =  -562.505303752     A.U. after   13 cycles
 SCF Done:  E(RB3LYP) =  -562.505309729     A.U. after   12 cycles
 SCF Done:  E(RB3LYP) =  -562.505310208     A.U. after   10 cycles
 Optimization completed.
    -- Stationary point found.

                         Standard orientation:
 ---------------------------------------------------------------------
 Center     Atomic      Atomic             Coordinates (Angstroms)
 Number     Number       Type             X           Y           Z
 ---------------------------------------------------------------------
      1          7           0        1.884108    2.868296   -0.131225
      2          6           0        1.356682    1.789921   -0.088388
      3          6           0        0.725334    0.475864   -0.037363
      4          6           0        1.554235   -0.691835   -0.002199
      5          6           0        0.943365   -1.989599   -0.007148
      6          6           0       -0.439277   -2.116087   -0.013232
      7          6           0       -1.307748   -0.968437   -0.000694
      8          6           0       -0.717957    0.373027   -0.001759
      9          6           0       -1.607718    1.498951    0.174439
     10          6           0       -3.008312    1.417069    0.134104
     11          6           0       -3.510127    0.090949   -0.120275
     12          6           0       -2.733935   -1.072516   -0.009574
     13          7           0        4.204026   -0.533886    0.067339
     14          6           0        3.003939   -0.586369    0.042608
     15          1           0        1.588838   -2.876968    0.001913
     16          1           0       -0.893043   -3.116536   -0.019376
     17          1           0       -1.106599    2.449922    0.423425
     18          1           0       -4.577784   -0.044810   -0.374340
     19          1           0       -3.179233   -2.078099   -0.007528
 ---------------------------------------------------------------------

 The electronic state is 1-A.
 Alpha  occ. eigenvalues --  -13.98746 -13.98289  -9.90630  -9.90297  -9.89284
 Alpha  occ. eigenvalues --   -9.88748  -9.87877  -9.87026  -9.86597  -9.86455
 Alpha  occ. eigenvalues --   -9.82986  -9.81416  -9.79647  -9.69392  -0.72426
 Alpha  occ. eigenvalues --   -0.71408  -0.67331  -0.61352  -0.58763  -0.53900
 Alpha  occ. eigenvalues --   -0.50787  -0.45907  -0.41925  -0.39773  -0.34368
 Alpha  occ. eigenvalues --   -0.33776  -0.29340  -0.27484  -0.23951  -0.23887
 Alpha  occ. eigenvalues --   -0.21408  -0.21067  -0.18953  -0.16453  -0.16027
 Alpha  occ. eigenvalues --   -0.15199  -0.15079  -0.14594  -0.13112  -0.12475
 Alpha  occ. eigenvalues --   -0.11472  -0.09299  -0.06881  -0.01764   0.01109
 Alpha  occ. eigenvalues --    0.10043
 Alpha virt. eigenvalues --    0.15521   0.21287   0.25595   0.25896   0.26875
 Alpha virt. eigenvalues --    0.30468   0.32021   0.38370   0.42165   0.45026
 Alpha virt. eigenvalues --    0.47054   0.50555   0.54492   0.57033   0.57972

 Mulliken charges:
               1
     1  N   -0.231089
     2  C    0.053526
     3  C   -0.023115
     4  C   -0.031948
     5  C   -0.094300
     6  C   -0.094675
     7  C   -0.020889
     8  C   -0.009527
     9  C   -0.141687
    10  C   -0.182726
    11  C   -0.118720
    12  C   -0.117052
    13  N   -0.237860
    14  C    0.043833
    15  H    0.060667
    16  H    0.055048
    17  H    0.031491
    18  H    0.024379
    19  H    0.034644
 Sum of Mulliken charges =  -1.00000

 Dipole moment (field-independent basis, Debye):
    X=              0.2529    Y=             -5.0947    Z=             -0.2253  Tot=              5.1060
 Quadrupole moment (field-independent basis, Debye-Ang):
   XX=           -123.5998   YY=            -90.2521   ZZ=            -74.5445
   XY=              4.1973   XZ=              1.0416   YZ=             -0.1498

 Normal termination of Gaussian 09 at Tue Jun 15 11:19:19 2021.
