 Gaussian 09, Revision D.01,
 Gaussian 09:  ES64L-G09RevD.01 24-Apr-2013

 -------------------
 #N B3LYP/STO-3G OPT
 -------------------

 -----
 1Naph
 -----
 Symbolic Z-matrix:
 Charge = -1 Multiplicity = 1

 SCF Done:  E(RB3LYP) =  -562.467633976     A.U. after   21 cycles
 SCF Done:  E(RB3LYP) =  -562.503673011     A.U. after   18 cycles
 SCF Done:  E(RB3LYP) =  -562.513568630     A.U. after   19 cycles
 SCF Done:  E(RB3LYP) =  -562.516039719     A.U. after   18 cycles
 SCF Done:  E(RB3LYP) =  -562.514375791     A.U. after   19 cycles
 SCF Done:  E(RB3LYP) =  -562.516705753     A.U. after   14 cycles
 SCF Done:  E(RB3LYP) =  -562.517506461     A.U. after   17 cycles
 SCF Done:  E(RB3LYP) =  -562.517763656     A.U. after   18 cycles
 SCF Done:  E(RB3LYP) =  -562.517101344     A.U. after   18 cycles
 SCF Done:  E(RB3LYP) =  -562.517824610     A.U. after   13 cycles
 SCF Done:  E(RB3LYP) =  -562.517899237     A.U. after   14 cycles
 SCF Done:  E(RB3LYP) =  -562.517915250     A.U. after   14 cycles
 SCF Done:  E(RB3LYP) =  -562.517917291     A.U. after   11 cycles
 SCF Done:  E(RB3LYP) =  -562.517917705     A.U. after   11 cycles
 SCF Done:  E(RB3LYP) =  -562.517917764     A.U. after   10 cycles
 Optimization completed.
    -- Stationary point found.

                         Standard orientation:
 ---------------------------------------------------------------------
 Center     Atomic      Atomic             Coordinates (Angstroms)
 Number     Number       Type             X           Y           Z
 ---------------------------------------------------------------------
      1          7           0        1.815529    2.909349    0.000109
      2          6           0        1.343599    1.804568    0.000067
      3          6           0        0.757055    0.476306    0.000032
      4          6           0        1.574929   -0.691349    0.000086
      5          6           0        0.986820   -1.999724    0.000052
      6          6           0       -0.409359   -2.323381   -0.000081
      7          6           0       -1.201515   -1.064579    0.000021
      8          6           0       -0.680311    0.296635   -0.000004
      9          6           0       -1.582318    1.420687   -0.000108
     10          6           0       -2.956161    1.232552   -0.000098
     11          6           0       -3.498609   -0.090312    0.000031
     12          6           0       -2.643302   -1.185167    0.000065
     13          7           0        4.235181   -0.515792   -0.000129
     14          6           0        3.034912   -0.549018   -0.000036
     15          1           0        1.726990   -2.819317    0.000095
     16          1           0       -1.161072    2.435729   -0.000172
     17          1           0       -3.632360    2.098167   -0.000218
     18          1           0       -4.587814   -0.227746    0.000122
     19          1           0       -3.055168   -2.205052    0.000147
 ---------------------------------------------------------------------

 The electronic state is 1-A.
 Alpha  occ. eigenvalues --  -13.97648 -13.96903  -9.88945  -9.88016  -9.87908
 Alpha  occ. eigenvalues --   -9.87707  -9.86986  -9.86795  -9.86325  -9.86138
 Alpha  occ. eigenvalues --   -9.85527  -9.83108  -9.80570  -9.67911  -0.71314
 Alpha  occ. eigenvalues --   -0.70570  -0.66427  -0.62414  -0.56553  -0.54744
 Alpha  occ. eigenvalues --   -0.51655  -0.44412  -0.41377  -0.40519  -0.34158
 Alpha  occ. eigenvalues --   -0.32826  -0.31196  -0.25604  -0.24123  -0.23584
 Alpha  occ. eigenvalues --   -0.21845  -0.19986  -0.19566  -0.16296  -0.15790
 Alpha  occ. eigenvalues --   -0.14436  -0.14425  -0.13364  -0.12528  -0.12105
 Alpha  occ. eigenvalues --   -0.09660  -0.09337  -0.06420  -0.03144   0.01671
 Alpha  occ. eigenvalues --    0.10379
 Alpha virt. eigenvalues --    0.17385   0.22033   0.24052   0.26802   0.27833
 Alpha virt. eigenvalues --    0.30476   0.34779   0.37166   0.43433   0.46104
 Alpha virt. eigenvalues --    0.48214   0.49456   0.52921   0.56112   0.57740

 Mulliken charges:
               1
     1  N   -0.249259
     2  C    0.041332
     3  C   -0.046699
     4  C   -0.020733
     5  C   -0.134475
     6  C   -0.200620
     7  C   -0.046915
     8  C   -0.014908
     9  C   -0.096923
    10  C   -0.097972
    11  C   -0.110208
    12  C   -0.080633
    13  N   -0.241564
    14  C    0.045849
    15  H    0.029136
    16  H    0.062947
    17  H    0.050741
    18  H    0.047332
    19  H    0.063573
 Sum of Mulliken charges =  -1.00000

 Dipole moment (field-independent basis, Debye):
    X=             -4.3835    Y=              1.7427    Z=              0.0003  Tot=              4.7172
 Quadrupole moment (field-independent basis, Debye-Ang):
   XX=           -106.4079   YY=            -99.8474   ZZ=            -74.1563
   XY=             -7.2684   XZ=              0.0003   YZ=             -0.0015

 Normal termination of Gaussian 09 at Tue Jun 15 11:19:44 2021.
