 Gaussian 09, Revision D.01,
 Gaussian 09:  ES64L-G09RevD.01 24-Apr-2013

 -------------------
 #N B3LYP/STO-3G OPT
 -------------------

 -----
 1Naph
 -----
 Symbolic Z-matrix:
 Charge = -1 Multiplicity = 1

 SCF Done:  E(RB3LYP) =  -562.488333398     A.U. after   24 cycles
 SCF Done:  E(RB3LYP) =  -562.517018404     A.U. after   18 cycles
 SCF Done:  E(RB3LYP) =  -562.519089076     A.U. after   19 cycles
 SCF Done:  E(RB3LYP) =  -562.518199937     A.U. after   18 cycles
 SCF Done:  E(RB3LYP) =  -562.520535834     A.U. after   12 cycles
 SCF Done:  E(RB3LYP) =  -562.520969543     A.U. after   14 cycles
 SCF Done:  E(RB3LYP) =  -562.520900789     A.U. after   14 cycles
 SCF Done:  E(RB3LYP) =  -562.521059108     A.U. after   16 cycles
 SCF Done:  E(RB3LYP) =  -562.521127067     A.U. after   16 cycles
 SCF Done:  E(RB3LYP) =  -562.521162456     A.U. after   16 cycles
 SCF Done:  E(RB3LYP) =  -562.521186381     A.U. after   16 cycles
 SCF Done:  E(RB3LYP) =  -562.521194315     A.U. after   14 cycles
 SCF Done:  E(RB3LYP) =  -562.521195590     A.U. after   13 cycles
 SCF Done:  E(RB3LYP) =  -562.521196194     A.U. after   11 cycles
 SCF Done:  E(RB3LYP) =  -562.521196252     A.U. after   10 cycles
 Optimization completed.
    -- Stationary point found.

                         Standard orientation:
 ---------------------------------------------------------------------
 Center     Atomic      Atomic             Coordinates (Angstroms)
 Number     Number       Type             X           Y           Z
 ---------------------------------------------------------------------
      1          7           0        3.413502   -2.442787    0.000596
      2          6           0        2.804349   -1.408802    0.000290
      3          6           0        2.090684   -0.114829   -0.000070
      4          6           0        2.911197    1.066365   -0.000005
      5          6           0        2.021521    2.254107   -0.000397
      6          6           0        0.637031    2.276275    0.000173
      7          6           0       -0.114627    1.040628    0.000148
      8          6           0        0.638566   -0.201006   -0.000273
      9          6           0       -0.108330   -1.436685   -0.000616
     10          6           0       -1.493052   -1.456761   -0.000462
     11          6           0       -2.237023   -0.220391    0.000006
     12          6           0       -1.540205    1.001846    0.000314
     13          7           0       -4.895324   -0.266348    0.000255
     14          6           0       -3.695407   -0.244175    0.000144
     15          1           0        2.508783    3.247960   -0.000860
     16          1           0        0.066708    3.218163    0.000425
     17          1           0        0.453425   -2.381168   -0.000979
     18          1           0       -2.042508   -2.407229   -0.000699
     19          1           0       -2.101880    1.946791    0.000645
 ---------------------------------------------------------------------

 The electronic state is 1-A.
 Alpha  occ. eigenvalues --  -14.00009 -13.93163  -9.91220  -9.90522  -9.89130
 Alpha  occ. eigenvalues --   -9.88609  -9.87377  -9.87291  -9.87155  -9.84687
 Alpha  occ. eigenvalues --   -9.84088  -9.82676  -9.81779  -9.68117  -0.73551
 Alpha  occ. eigenvalues --   -0.68454  -0.67504  -0.61916  -0.58936  -0.54021
 Alpha  occ. eigenvalues --   -0.52649  -0.44248  -0.42937  -0.41101  -0.35803
 Alpha  occ. eigenvalues --   -0.31866  -0.30400  -0.27615  -0.26229  -0.24044
 Alpha  occ. eigenvalues --   -0.21415  -0.21271  -0.19310  -0.17860  -0.17047
 Alpha  occ. eigenvalues --   -0.15916  -0.14557  -0.13160  -0.12708  -0.10843
 Alpha  occ. eigenvalues --   -0.10150  -0.07889  -0.07424  -0.02751   0.01100
 Alpha  occ. eigenvalues --    0.10455
 Alpha virt. eigenvalues --    0.17119   0.19593   0.24802   0.25936   0.29257
 Alpha virt. eigenvalues --    0.31002   0.34066   0.37643   0.42196   0.45840
 Alpha virt. eigenvalues --    0.48103   0.50541   0.52667   0.54210   0.56182

 Mulliken charges:
               1
     1  N   -0.281479
     2  C    0.036656
     3  C   -0.083140
     4  C   -0.195802
     5  C   -0.117854
     6  C   -0.104408
     7  C   -0.025855
     8  C   -0.009306
     9  C   -0.091514
    10  C   -0.089045
    11  C   -0.039939
    12  C   -0.075116
    13  N   -0.240015
    14  C    0.045201
    15  H    0.026601
    16  H    0.040738
    17  H    0.074218
    18  H    0.063776
    19  H    0.066280
 Sum of Mulliken charges =  -1.00000

 Dipole moment (field-independent basis, Debye):
    X=             -5.1209    Y=              1.1023    Z=             -0.0013  Tot=              5.2382
 Quadrupole moment (field-independent basis, Debye-Ang):
   XX=           -142.1297   YY=            -85.1211   ZZ=            -74.1416
   XY=              3.2867   XZ=             -0.0032   YZ=              0.0039

 Normal termination of Gaussian 09 at Tue Jun 15 11:19:45 2021.
