 Gaussian 09, Revision D.01,
 Gaussian 09:  ES64L-G09RevD.01 24-Apr-2013

 -------------------
 #N B3LYP/STO-3G OPT
 -------------------

 -----
 1Naph
 -----
 Symbolic Z-matrix:
 Charge = -1 Multiplicity = 1

 SCF Done:  E(RB3LYP) =  -562.476222010     A.U. after   28 cycles
 SCF Done:  E(RB3LYP) =  -562.508800677     A.U. after   19 cycles
 SCF Done:  E(RB3LYP) =  -562.513324563     A.U. after   14 cycles
 SCF Done:  E(RB3LYP) =  -562.513390254     A.U. after   16 cycles
 SCF Done:  E(RB3LYP) =  -562.513236298     A.U. after   14 cycles
 SCF Done:  E(RB3LYP) =  -562.513475214     A.U. after   10 cycles
 SCF Done:  E(RB3LYP) =  -562.513505747     A.U. after   14 cycles
 SCF Done:  E(RB3LYP) =  -562.513508186     A.U. after   13 cycles
 SCF Done:  E(RB3LYP) =  -562.513506779     A.U. after   12 cycles
 SCF Done:  E(RB3LYP) =  -562.513509241     A.U. after   12 cycles
 Optimization completed.
    -- Stationary point found.

                         Standard orientation:
 ---------------------------------------------------------------------
 Center     Atomic      Atomic             Coordinates (Angstroms)
 Number     Number       Type             X           Y           Z
 ---------------------------------------------------------------------
      1          7           0        3.421667   -2.461322   -0.000040
      2          6           0        2.718779   -1.487790   -0.000022
      3          6           0        1.993420   -0.205590   -0.000013
      4          6           0        2.712761    0.998040   -0.000013
      5          6           0        2.006614    2.238141    0.000010
      6          6           0        0.617861    2.252941    0.000020
      7          6           0       -0.144645    1.028757    0.000008
      8          6           0        0.540071   -0.262272    0.000010
      9          6           0       -0.076414   -1.605439    0.000047
     10          6           0       -1.493095   -1.460839    0.000070
     11          6           0       -2.236687   -0.217876    0.000009
     12          6           0       -1.573807    1.022426   -0.000014
     13          7           0       -4.902488   -0.304407   -0.000049
     14          6           0       -3.703846   -0.238107   -0.000028
     15          1           0        3.810421    0.990476   -0.000026
     16          1           0        2.572270    3.179186    0.000022
     17          1           0        0.080249    3.212437    0.000042
     18          1           0       -2.130752   -2.362581    0.000131
     19          1           0       -2.132502    1.966223   -0.000051
 ---------------------------------------------------------------------

 The electronic state is 1-A.
 Alpha  occ. eigenvalues --  -13.96917 -13.96780  -9.89285  -9.87698  -9.87607
 Alpha  occ. eigenvalues --   -9.87528  -9.87518  -9.87435  -9.87253  -9.86194
 Alpha  occ. eigenvalues --   -9.84470  -9.83485  -9.79690  -9.66929  -0.70788
 Alpha  occ. eigenvalues --   -0.70328  -0.66764  -0.61916  -0.57791  -0.54698
 Alpha  occ. eigenvalues --   -0.50272  -0.45184  -0.41594  -0.40574  -0.33061
 Alpha  occ. eigenvalues --   -0.32782  -0.30651  -0.27748  -0.25014  -0.23317
 Alpha  occ. eigenvalues --   -0.20530  -0.19616  -0.19030  -0.17129  -0.16767
 Alpha  occ. eigenvalues --   -0.14046  -0.13816  -0.13221  -0.11938  -0.11346
 Alpha  occ. eigenvalues --   -0.10100  -0.09595  -0.05972  -0.02802   0.02011
 Alpha  occ. eigenvalues --    0.11142
 Alpha virt. eigenvalues --    0.17197   0.21521   0.24584   0.27657   0.28408
 Alpha virt. eigenvalues --    0.32116   0.32854   0.38176   0.44634   0.45260
 Alpha virt. eigenvalues --    0.46285   0.49523   0.53708   0.56423   0.57175

 Mulliken charges:
               1
     1  N   -0.242683
     2  C    0.068613
     3  C   -0.013612
     4  C   -0.096321
     5  C   -0.101212
     6  C   -0.089906
     7  C   -0.026879
     8  C   -0.033753
     9  C   -0.209589
    10  C   -0.134012
    11  C   -0.035399
    12  C   -0.108634
    13  N   -0.256048
    14  C    0.039816
    15  H    0.059619
    16  H    0.052123
    17  H    0.053464
    18  H    0.026191
    19  H    0.048223
 Sum of Mulliken charges =  -1.00000

 Dipole moment (field-independent basis, Debye):
    X=              2.1576    Y=              6.1654    Z=              0.0000  Tot=              6.5321
 Quadrupole moment (field-independent basis, Debye-Ang):
   XX=           -121.3772   YY=            -90.5180   ZZ=            -74.1702
   XY=              8.6029   XZ=             -0.0001   YZ=              0.0001

 Normal termination of Gaussian 09 at Tue Jun 15 11:17:41 2021.
