 Gaussian 09, Revision D.01,
 Gaussian 09:  ES64L-G09RevD.01 24-Apr-2013

 -------------------
 #N B3LYP/STO-3G OPT
 -------------------

 -----
 2Naph
 -----
 Symbolic Z-matrix:
 Charge = -1 Multiplicity = 1

 SCF Done:  E(RB3LYP) =  -562.452857820     A.U. after   24 cycles
 SCF Done:  E(RB3LYP) =  -562.494098090     A.U. after   20 cycles
 SCF Done:  E(RB3LYP) =  -562.514588476     A.U. after   20 cycles
 SCF Done:  E(RB3LYP) =  -562.519209666     A.U. after   19 cycles
 SCF Done:  E(RB3LYP) =  -562.516980739     A.U. after   19 cycles
 SCF Done:  E(RB3LYP) =  -562.519903447     A.U. after   12 cycles
 SCF Done:  E(RB3LYP) =  -562.520340329     A.U. after   16 cycles
 SCF Done:  E(RB3LYP) =  -562.520232739     A.U. after   16 cycles
 SCF Done:  E(RB3LYP) =  -562.520432304     A.U. after   14 cycles
 SCF Done:  E(RB3LYP) =  -562.520441027     A.U. after   12 cycles
 SCF Done:  E(RB3LYP) =  -562.520442135     A.U. after   12 cycles
 SCF Done:  E(RB3LYP) =  -562.520442215     A.U. after   10 cycles
 Optimization completed.
    -- Stationary point found.

                         Standard orientation:
 ---------------------------------------------------------------------
 Center     Atomic      Atomic             Coordinates (Angstroms)
 Number     Number       Type             X           Y           Z
 ---------------------------------------------------------------------
      1          7           0       -4.471358    1.055967   -0.000413
      2          6           0       -3.371721    0.576112   -0.000039
      3          6           0       -0.895371    0.878512    0.000340
      4          6           0       -2.018816   -0.016758    0.000205
      5          6           0       -1.990588   -1.465075    0.000028
      6          6           0       -0.787451   -2.149974    0.000098
      7          6           0        0.440344   -1.397659    0.000204
      8          6           0        0.342654    0.056493    0.000127
      9          6           0        1.601808    0.778322    0.000009
     10          6           0        2.850755    0.135340   -0.000255
     11          6           0        2.904847   -1.287109   -0.000205
     12          6           0        1.730132   -2.033340    0.000026
     13          7           0        1.632614    3.447670    0.000122
     14          6           0        1.546491    2.250142   -0.000014
     15          1           0       -2.935726   -2.030586   -0.000216
     16          1           0       -0.751324   -3.246305    0.000071
     17          1           0        3.777903    0.722759   -0.000475
     18          1           0        3.881251   -1.789487   -0.000480
     19          1           0        1.780584   -3.131885   -0.000006
 ---------------------------------------------------------------------

 The electronic state is 1-A.
 Alpha  occ. eigenvalues --  -13.96987 -13.92973  -9.89557  -9.87831  -9.87803
 Alpha  occ. eigenvalues --   -9.87682  -9.87319  -9.86451  -9.84850  -9.83868
 Alpha  occ. eigenvalues --   -9.83809  -9.83777  -9.82502  -9.68254  -0.70444
 Alpha  occ. eigenvalues --   -0.67595  -0.66877  -0.61622  -0.57981  -0.54353
 Alpha  occ. eigenvalues --   -0.51088  -0.44682  -0.42340  -0.39539  -0.33977
 Alpha  occ. eigenvalues --   -0.32882  -0.30417  -0.27800  -0.24860  -0.22846
 Alpha  occ. eigenvalues --   -0.20464  -0.19865  -0.19659  -0.17224  -0.14948
 Alpha  occ. eigenvalues --   -0.13495  -0.13332  -0.13171  -0.11104  -0.09973
 Alpha  occ. eigenvalues --   -0.09960  -0.07894  -0.05931  -0.02976   0.01970
 Alpha  occ. eigenvalues --    0.10317
 Alpha virt. eigenvalues --    0.17676   0.21338   0.27047   0.28164   0.29982
 Alpha virt. eigenvalues --    0.31316   0.33451   0.39156   0.44521   0.46328
 Alpha virt. eigenvalues --    0.47372   0.49643   0.53611   0.54954   0.57377

 Mulliken charges:
               1
     1  N   -0.281258
     2  C    0.036686
     3  C   -0.188484
     4  C   -0.082617
     5  C   -0.089682
     6  C   -0.121191
     7  C   -0.022789
     8  C   -0.035363
     9  C   -0.011925
    10  C   -0.096564
    11  C   -0.099779
    12  C   -0.091829
    13  N   -0.238865
    14  C    0.069506
    15  H    0.048322
    16  H    0.040250
    17  H    0.060274
    18  H    0.052566
    19  H    0.052743
 Sum of Mulliken charges =  -1.00000

 Dipole moment (field-independent basis, Debye):
    X=              5.5596    Y=             -6.2641    Z=             -0.0004  Tot=              8.3754
 Quadrupole moment (field-independent basis, Debye-Ang):
   XX=           -108.6289   YY=            -96.0773   ZZ=            -74.1672
   XY=              3.8122   XZ=             -0.0032   YZ=             -0.0006

 Normal termination of Gaussian 09 at Tue Jun 15 11:13:49 2021.
