 Gaussian 09, Revision D.01,
 Gaussian 09:  ES64L-G09RevD.01 24-Apr-2013

 -------------------
 #N B3LYP/STO-3G OPT
 -------------------

 -----
 1Naph
 -----
 Symbolic Z-matrix:
 Charge = -1 Multiplicity = 1

 SCF Done:  E(RB3LYP) =  -562.473239445     A.U. after   28 cycles
 SCF Done:  E(RB3LYP) =  -562.506125140     A.U. after   20 cycles
 SCF Done:  E(RB3LYP) =  -562.509750592     A.U. after   13 cycles
 SCF Done:  E(RB3LYP) =  -562.508094449     A.U. after   16 cycles
 SCF Done:  E(RB3LYP) =  -562.509929226     A.U. after   12 cycles
 SCF Done:  E(RB3LYP) =  -562.510047584     A.U. after   11 cycles
 SCF Done:  E(RB3LYP) =  -562.510062497     A.U. after   10 cycles
 SCF Done:  E(RB3LYP) =  -562.510063627     A.U. after   10 cycles
 SCF Done:  E(RB3LYP) =  -562.510064044     A.U. after   10 cycles
 SCF Done:  E(RB3LYP) =  -562.510063985     A.U. after   12 cycles
 Optimization completed.
    -- Stationary point found.

                         Standard orientation:
 ---------------------------------------------------------------------
 Center     Atomic      Atomic             Coordinates (Angstroms)
 Number     Number       Type             X           Y           Z
 ---------------------------------------------------------------------
      1          7           0       -0.687318    3.825366   -0.000674
      2          6           0       -0.334578    2.678110    0.000423
      3          6           0        0.094932    1.279203    0.000241
      4          6           0        1.464927    0.998863    0.000173
      5          6           0        1.920233   -0.362333    0.000031
      6          6           0        0.970179   -1.409628   -0.000070
      7          6           0       -0.445355   -1.198904   -0.000032
      8          6           0       -0.898322    0.204475    0.000147
      9          6           0       -2.295466    0.450809    0.000211
     10          6           0       -3.167699   -0.648594    0.000062
     11          6           0       -2.683364   -1.983109   -0.000151
     12          6           0       -1.311162   -2.410829   -0.000181
     13          7           0        4.528241   -0.876043   -0.000072
     14          6           0        3.350460   -0.645229   -0.000025
     15          1           0        2.197407    1.817006    0.000234
     16          1           0        1.325230   -2.451859   -0.000203
     17          1           0       -2.672593    1.480334    0.000363
     18          1           0       -4.252562   -0.450753    0.000120
     19          1           0       -3.472651   -2.756989   -0.000270
 ---------------------------------------------------------------------

 The electronic state is 1-A.
 Alpha  occ. eigenvalues --  -13.99046 -13.99007  -9.90473  -9.90206  -9.89609
 Alpha  occ. eigenvalues --   -9.89559  -9.89390  -9.87703  -9.86506  -9.83905
 Alpha  occ. eigenvalues --   -9.82877  -9.82871  -9.78625  -9.66484  -0.72724
 Alpha  occ. eigenvalues --   -0.72500  -0.67282  -0.61424  -0.58689  -0.54215
 Alpha  occ. eigenvalues --   -0.50185  -0.45049  -0.43248  -0.39326  -0.34783
 Alpha  occ. eigenvalues --   -0.31202  -0.30165  -0.28977  -0.25370  -0.22935
 Alpha  occ. eigenvalues --   -0.21277  -0.19601  -0.18475  -0.17645  -0.16469
 Alpha  occ. eigenvalues --   -0.15834  -0.14687  -0.14320  -0.14223  -0.13261
 Alpha  occ. eigenvalues --   -0.10549  -0.08926  -0.06636  -0.02917   0.02430
 Alpha  occ. eigenvalues --    0.11323
 Alpha virt. eigenvalues --    0.16847   0.19438   0.25139   0.26369   0.27120
 Alpha virt. eigenvalues --    0.28523   0.33792   0.37730   0.41884   0.45744
 Alpha virt. eigenvalues --    0.46095   0.50751   0.53729   0.54171   0.57821

 Mulliken charges:
               1
     1  N   -0.240240
     2  C    0.049722
     3  C   -0.032596
     4  C   -0.073886
     5  C   -0.048449
     6  C   -0.056065
     7  C   -0.049021
     8  C   -0.014926
     9  C   -0.127230
    10  C   -0.094643
    11  C   -0.148926
    12  C   -0.212858
    13  N   -0.243100
    14  C    0.044768
    15  H    0.070941
    16  H    0.078971
    17  H    0.047060
    18  H    0.036967
    19  H    0.013510
 Sum of Mulliken charges =  -1.00000

 Dipole moment (field-independent basis, Debye):
    X=              0.1872    Y=              2.4256    Z=              0.0017  Tot=              2.4328
 Quadrupole moment (field-independent basis, Debye-Ang):
   XX=           -108.7716   YY=           -109.0399   ZZ=            -74.1551
   XY=              0.8508   XZ=             -0.0011   YZ=              0.0038

 Normal termination of Gaussian 09 at Tue Jun 15 11:18:19 2021.
