 Gaussian 09, Revision D.01,
 Gaussian 09:  ES64L-G09RevD.01 24-Apr-2013

 -------------------
 #N B3LYP/STO-3G OPT
 -------------------

 -----
 1Naph
 -----
 Symbolic Z-matrix:
 Charge = -1 Multiplicity = 1

 SCF Done:  E(RB3LYP) =  -562.480011336     A.U. after   24 cycles
 SCF Done:  E(RB3LYP) =  -562.510314215     A.U. after   20 cycles
 SCF Done:  E(RB3LYP) =  -562.513229466     A.U. after   19 cycles
 SCF Done:  E(RB3LYP) =  -562.510362497     A.U. after   21 cycles
 SCF Done:  E(RB3LYP) =  -562.514120819     A.U. after   12 cycles
 SCF Done:  E(RB3LYP) =  -562.514446346     A.U. after   15 cycles
 SCF Done:  E(RB3LYP) =  -562.514465108     A.U. after   13 cycles
 SCF Done:  E(RB3LYP) =  -562.514466710     A.U. after   12 cycles
 SCF Done:  E(RB3LYP) =  -562.514468414     A.U. after   12 cycles
 SCF Done:  E(RB3LYP) =  -562.514472043     A.U. after   12 cycles
 SCF Done:  E(RB3LYP) =  -562.510304106     A.U. after   19 cycles
 SCF Done:  E(RB3LYP) =  -562.514489113     A.U. after   16 cycles
 SCF Done:  E(RB3LYP) =  -562.515268572     A.U. after   16 cycles
 SCF Done:  E(RB3LYP) =  -562.515502563     A.U. after   15 cycles
 SCF Done:  E(RB3LYP) =  -562.515341297     A.U. after   15 cycles
 SCF Done:  E(RB3LYP) =  -562.515852507     A.U. after   11 cycles
 SCF Done:  E(RB3LYP) =  -562.516095606     A.U. after   14 cycles
 SCF Done:  E(RB3LYP) =  -562.516115951     A.U. after   14 cycles
 SCF Done:  E(RB3LYP) =  -562.516121323     A.U. after   11 cycles
 SCF Done:  E(RB3LYP) =  -562.516122146     A.U. after   10 cycles
 Optimization completed.
    -- Stationary point found.

                         Standard orientation:
 ---------------------------------------------------------------------
 Center     Atomic      Atomic             Coordinates (Angstroms)
 Number     Number       Type             X           Y           Z
 ---------------------------------------------------------------------
      1          7           0        1.781284    3.391303    0.062076
      2          6           0        1.713411    2.191202    0.042603
      3          6           0        1.693387    0.739302   -0.015757
      4          6           0        2.887455   -0.013779   -0.186702
      5          6           0        2.992862   -1.423337    0.066446
      6          6           0        1.751133   -2.075529    0.144895
      7          6           0        0.466258   -1.430218   -0.021162
      8          6           0        0.422268    0.026396    0.003935
      9          6           0       -0.843936    0.684877    0.020003
     10          6           0       -2.048095   -0.047059   -0.007964
     11          6           0       -2.008035   -1.485275   -0.043866
     12          6           0       -0.785129   -2.141347   -0.059814
     13          7           0       -4.400281    1.193863    0.009373
     14          6           0       -3.335508    0.640361    0.001568
     15          1           0        3.784044    0.557980   -0.489224
     16          1           0        1.695774   -3.145310    0.414014
     17          1           0       -0.874203    1.782990    0.045517
     18          1           0       -2.951589   -2.045794   -0.052792
     19          1           0       -0.757470   -3.239597   -0.082779
 ---------------------------------------------------------------------

 The electronic state is 1-A.
 Alpha  occ. eigenvalues --  -13.99459 -13.95557  -9.90715  -9.89976  -9.88056
 Alpha  occ. eigenvalues --   -9.87970  -9.87389  -9.86967  -9.86465  -9.86456
 Alpha  occ. eigenvalues --   -9.86279  -9.82437  -9.80361  -9.69585  -0.72996
 Alpha  occ. eigenvalues --   -0.69847  -0.67584  -0.61808  -0.58468  -0.54123
 Alpha  occ. eigenvalues --   -0.52122  -0.44111  -0.42779  -0.41046  -0.35933
 Alpha  occ. eigenvalues --   -0.31571  -0.29632  -0.27601  -0.25470  -0.24709
 Alpha  occ. eigenvalues --   -0.21182  -0.20970  -0.18991  -0.17476  -0.17025
 Alpha  occ. eigenvalues --   -0.15264  -0.14130  -0.14052  -0.13552  -0.11561
 Alpha  occ. eigenvalues --   -0.11060  -0.08971  -0.07614  -0.02184   0.00822
 Alpha  occ. eigenvalues --    0.09491
 Alpha virt. eigenvalues --    0.16960   0.20463   0.23936   0.25394   0.28252
 Alpha virt. eigenvalues --    0.29622   0.35015   0.37230   0.42660   0.44636
 Alpha virt. eigenvalues --    0.47578   0.50927   0.53579   0.56504   0.56949

 Mulliken charges:
               1
     1  N   -0.263838
     2  C    0.031076
     3  C   -0.055342
     4  C   -0.104647
     5  C   -0.189539
     6  C   -0.137170
     7  C   -0.015629
     8  C   -0.013582
     9  C   -0.080038
    10  C   -0.037968
    11  C   -0.093870
    12  C   -0.094708
    13  N   -0.240275
    14  C    0.046284
    15  H    0.034537
    16  H    0.021381
    17  H    0.076227
    18  H    0.059721
    19  H    0.057378
 Sum of Mulliken charges =  -1.00000

 Dipole moment (field-independent basis, Debye):
    X=             -3.0862    Y=             -2.2564    Z=             -0.2836  Tot=              3.8336
 Quadrupole moment (field-independent basis, Debye-Ang):
   XX=           -122.2153   YY=            -98.0600   ZZ=            -74.4030
   XY=              9.1832   XZ=             -0.9079   YZ=              0.1102

 Normal termination of Gaussian 09 at Tue Jun 15 12:31:24 2021.
