 Gaussian 09, Revision D.01,
 Gaussian 09:  ES64L-G09RevD.01 24-Apr-2013

 -------------------
 #N B3LYP/STO-3G OPT
 -------------------

 -----
 2Naph
 -----
 Symbolic Z-matrix:
 Charge = -1 Multiplicity = 1

 SCF Done:  E(RB3LYP) =  -562.476314291     A.U. after   31 cycles
 SCF Done:  E(RB3LYP) =  -562.510041832     A.U. after   20 cycles
 SCF Done:  E(RB3LYP) =  -562.513599620     A.U. after   18 cycles
 SCF Done:  E(RB3LYP) =  -562.510891558     A.U. after   20 cycles
 SCF Done:  E(RB3LYP) =  -562.514075884     A.U. after   13 cycles
 SCF Done:  E(RB3LYP) =  -562.514281111     A.U. after   16 cycles
 SCF Done:  E(RB3LYP) =  -562.514295234     A.U. after   16 cycles
 SCF Done:  E(RB3LYP) =  -562.514423702     A.U. after   16 cycles
 SCF Done:  E(RB3LYP) =  -562.514466815     A.U. after   16 cycles
 SCF Done:  E(RB3LYP) =  -562.514483107     A.U. after   16 cycles
 SCF Done:  E(RB3LYP) =  -562.514488448     A.U. after   13 cycles
 SCF Done:  E(RB3LYP) =  -562.514489198     A.U. after   12 cycles
 Optimization completed.
    -- Stationary point found.

                         Standard orientation:
 ---------------------------------------------------------------------
 Center     Atomic      Atomic             Coordinates (Angstroms)
 Number     Number       Type             X           Y           Z
 ---------------------------------------------------------------------
      1          7           0        4.806378   -1.479616    0.000577
      2          6           0        3.733005   -0.941840    0.000437
      3          6           0        1.257118   -0.961431   -0.000124
      4          6           0        2.453128   -0.224688   -0.000073
      5          6           0        2.429907    1.224001   -0.000685
      6          6           0        1.280866    2.066670   -0.000468
      7          6           0        0.063635    1.221414    0.000024
      8          6           0        0.019132   -0.244456   -0.000453
      9          6           0       -1.241104   -0.936147   -0.000489
     10          6           0       -2.451477   -0.230941    0.000036
     11          6           0       -2.436898    1.213628    0.000556
     12          6           0       -1.224550    1.885450    0.000567
     13          7           0       -4.774304   -1.530939   -0.000064
     14          6           0       -3.726118   -0.947324    0.000003
     15          1           0        1.262081   -2.058250    0.000123
     16          1           0        3.435332    1.682338   -0.000873
     17          1           0       -1.254237   -2.035883   -0.000651
     18          1           0       -3.391804    1.754164    0.001019
     19          1           0       -1.215748    2.985506    0.000807
 ---------------------------------------------------------------------

 The electronic state is 1-A.
 Alpha  occ. eigenvalues --  -13.99998 -13.97069  -9.91069  -9.90443  -9.88327
 Alpha  occ. eigenvalues --   -9.87675  -9.87582  -9.87242  -9.86420  -9.86074
 Alpha  occ. eigenvalues --   -9.84752  -9.83228  -9.79854  -9.66575  -0.73473
 Alpha  occ. eigenvalues --   -0.70921  -0.67146  -0.62272  -0.57427  -0.55416
 Alpha  occ. eigenvalues --   -0.50451  -0.45316  -0.42803  -0.39478  -0.34516
 Alpha  occ. eigenvalues --   -0.33039  -0.30995  -0.25773  -0.25199  -0.23537
 Alpha  occ. eigenvalues --   -0.22353  -0.20795  -0.19367  -0.17557  -0.16375
 Alpha  occ. eigenvalues --   -0.15806  -0.14778  -0.14235  -0.13935  -0.12054
 Alpha  occ. eigenvalues --   -0.09989  -0.09809  -0.06982  -0.02874   0.01863
 Alpha  occ. eigenvalues --    0.11195
 Alpha virt. eigenvalues --    0.17237   0.19379   0.24980   0.26116   0.27644
 Alpha virt. eigenvalues --    0.28881   0.33874   0.37760   0.42110   0.45764
 Alpha virt. eigenvalues --    0.45814   0.51625   0.52969   0.54427   0.57233

 Mulliken charges:
               1
     1  N   -0.255374
     2  C    0.039483
     3  C   -0.106459
     4  C   -0.035847
     5  C   -0.133525
     6  C   -0.219540
     7  C   -0.040037
     8  C   -0.026251
     9  C   -0.077686
    10  C   -0.034573
    11  C   -0.101186
    12  C   -0.079699
    13  N   -0.239174
    14  C    0.047094
    15  H    0.050020
    16  H    0.024138
    17  H    0.063364
    18  H    0.057718
    19  H    0.067534
 Sum of Mulliken charges =  -1.00000

 Dipole moment (field-independent basis, Debye):
    X=             -3.2491    Y=             -1.2943    Z=              0.0007  Tot=              3.4974
 Quadrupole moment (field-independent basis, Debye-Ang):
   XX=           -137.9870   YY=            -90.5903   ZZ=            -74.1645
   XY=             -6.2794   XZ=             -0.0023   YZ=              0.0042

 Normal termination of Gaussian 09 at Tue Jun 15 11:13:54 2021.
