 Gaussian 09, Revision D.01,
 Gaussian 09:  ES64L-G09RevD.01 24-Apr-2013

 -------------------
 #N B3LYP/STO-3G OPT
 -------------------

 -----
 1Naph
 -----
 Symbolic Z-matrix:
 Charge = -1 Multiplicity = 1

 SCF Done:  E(RB3LYP) =  -562.492971634     A.U. after   41 cycles
 SCF Done:  E(RB3LYP) =  -562.523557306     A.U. after   17 cycles
 SCF Done:  E(RB3LYP) =  -562.527096721     A.U. after   18 cycles
 SCF Done:  E(RB3LYP) =  -562.523429773     A.U. after   19 cycles
 SCF Done:  E(RB3LYP) =  -562.527877734     A.U. after   14 cycles
 SCF Done:  E(RB3LYP) =  -562.528133793     A.U. after   14 cycles
 SCF Done:  E(RB3LYP) =  -562.528140165     A.U. after   12 cycles
 SCF Done:  E(RB3LYP) =  -562.528121134     A.U. after   14 cycles
 SCF Done:  E(RB3LYP) =  -562.528158775     A.U. after   13 cycles
 SCF Done:  E(RB3LYP) =  -562.528159389     A.U. after   11 cycles
 SCF Done:  E(RB3LYP) =  -562.528162679     A.U. after   11 cycles
 SCF Done:  E(RB3LYP) =  -562.517176252     A.U. after   17 cycles
 SCF Done:  E(RB3LYP) =  -562.528169131     A.U. after   10 cycles
 SCF Done:  E(RB3LYP) =  -562.528171762     A.U. after   16 cycles
 SCF Done:  E(RB3LYP) =  -562.528174871     A.U. after   14 cycles
 SCF Done:  E(RB3LYP) =  -562.528175806     A.U. after   16 cycles
 SCF Done:  E(RB3LYP) =  -562.528180138     A.U. after   12 cycles
 SCF Done:  E(RB3LYP) =  -562.528180596     A.U. after   11 cycles
 SCF Done:  E(RB3LYP) =  -562.528180883     A.U. after   11 cycles
 SCF Done:  E(RB3LYP) =  -562.528180865     A.U. after   10 cycles
 Optimization completed.
    -- Stationary point found.

                         Standard orientation:
 ---------------------------------------------------------------------
 Center     Atomic      Atomic             Coordinates (Angstroms)
 Number     Number       Type             X           Y           Z
 ---------------------------------------------------------------------
      1          7           0       -0.850847    3.792656   -0.075697
      2          6           0       -0.416606    2.674278   -0.046175
      3          6           0        0.146895    1.310040   -0.003773
      4          6           0        1.575030    1.210724   -0.018115
      5          6           0        1.946294   -0.223123   -0.016960
      6          6           0        1.086451   -1.328173   -0.110831
      7          6           0       -0.335782   -1.134114   -0.062318
      8          6           0       -0.828756    0.224872    0.032333
      9          6           0       -2.254623    0.415572    0.122094
     10          6           0       -3.133361   -0.659082    0.098849
     11          6           0       -2.639347   -1.998301   -0.004300
     12          6           0       -1.272791   -2.225691   -0.083032
     13          7           0        4.566434   -0.778969    0.110811
     14          6           0        3.393381   -0.534835    0.054432
     15          1           0        1.472341   -2.355045   -0.199625
     16          1           0       -2.636634    1.442950    0.199177
     17          1           0       -4.216696   -0.488032    0.156783
     18          1           0       -3.345842   -2.838082   -0.019036
     19          1           0       -0.882989   -3.250601   -0.156325
 ---------------------------------------------------------------------

 The electronic state is 1-A.
 Alpha  occ. eigenvalues --  -13.95449 -13.93561  -9.87678  -9.87650  -9.87499
 Alpha  occ. eigenvalues --   -9.87188  -9.87044  -9.86912  -9.85995  -9.85911
 Alpha  occ. eigenvalues --   -9.85689  -9.84471  -9.83372  -9.69562  -0.69509
 Alpha  occ. eigenvalues --   -0.68332  -0.67332  -0.61898  -0.58281  -0.54736
 Alpha  occ. eigenvalues --   -0.52159  -0.44560  -0.42036  -0.40900  -0.35442
 Alpha  occ. eigenvalues --   -0.33004  -0.29339  -0.27609  -0.24733  -0.23999
 Alpha  occ. eigenvalues --   -0.23226  -0.19797  -0.19248  -0.17159  -0.15372
 Alpha  occ. eigenvalues --   -0.15005  -0.13291  -0.12355  -0.11148  -0.10199
 Alpha  occ. eigenvalues --   -0.09928  -0.08173  -0.07433  -0.02344   0.00769
 Alpha  occ. eigenvalues --    0.09403
 Alpha virt. eigenvalues --    0.17195   0.22261   0.25518   0.28431   0.29225
 Alpha virt. eigenvalues --    0.31017   0.36207   0.37089   0.45429   0.46161
 Alpha virt. eigenvalues --    0.47686   0.48617   0.52925   0.54652   0.56344

 Mulliken charges:
               1
     1  N   -0.277411
     2  C    0.039909
     3  C   -0.078745
     4  C   -0.180017
     5  C   -0.053065
     6  C   -0.091082
     7  C   -0.025963
     8  C   -0.011271
     9  C   -0.092808
    10  C   -0.098578
    11  C   -0.104509
    12  C   -0.090578
    13  N   -0.263796
    14  C    0.045571
    15  H    0.052333
    16  H    0.070481
    17  H    0.053151
    18  H    0.050852
    19  H    0.055526
 Sum of Mulliken charges =  -1.00000

 Dipole moment (field-independent basis, Debye):
    X=             -5.8814    Y=             -5.7086    Z=             -0.0149  Tot=              8.1963
 Quadrupole moment (field-independent basis, Debye-Ang):
   XX=           -111.9244   YY=           -100.0526   ZZ=            -74.1996
   XY=              3.1999   XZ=             -0.9700   YZ=              0.9384

 Normal termination of Gaussian 09 at Tue Jun 15 11:25:57 2021.
