 Gaussian 09, Revision D.01,
 Gaussian 09:  ES64L-G09RevD.01 24-Apr-2013

 -------------------
 #N B3LYP/STO-3G OPT
 -------------------

 -----
 1Naph
 -----
 Symbolic Z-matrix:
 Charge = -1 Multiplicity = 1

 SCF Done:  E(RB3LYP) =  -562.469741653     A.U. after   23 cycles
 SCF Done:  E(RB3LYP) =  -562.500968504     A.U. after   19 cycles
 SCF Done:  E(RB3LYP) =  -562.508086640     A.U. after   16 cycles
 SCF Done:  E(RB3LYP) =  -562.507138779     A.U. after   18 cycles
 SCF Done:  E(RB3LYP) =  -562.508431222     A.U. after   12 cycles
 SCF Done:  E(RB3LYP) =  -562.508803011     A.U. after   16 cycles
 SCF Done:  E(RB3LYP) =  -562.508997915     A.U. after   15 cycles
 SCF Done:  E(RB3LYP) =  -562.508741218     A.U. after   17 cycles
 SCF Done:  E(RB3LYP) =  -562.509081838     A.U. after   11 cycles
 SCF Done:  E(RB3LYP) =  -562.509193300     A.U. after   14 cycles
 SCF Done:  E(RB3LYP) =  -562.509227318     A.U. after   14 cycles
 SCF Done:  E(RB3LYP) =  -562.509233314     A.U. after   13 cycles
 SCF Done:  E(RB3LYP) =  -562.509234241     A.U. after   10 cycles
 Optimization completed.
    -- Stationary point found.

                         Standard orientation:
 ---------------------------------------------------------------------
 Center     Atomic      Atomic             Coordinates (Angstroms)
 Number     Number       Type             X           Y           Z
 ---------------------------------------------------------------------
      1          7           0       -3.296755   -1.302448    0.078518
      2          6           0       -2.099647   -1.193447    0.044179
      3          6           0       -0.649105   -1.247454   -0.022542
      4          6           0       -0.017077   -2.516914   -0.226511
      5          6           0        1.353602   -2.761046    0.056504
      6          6           0        2.139941   -1.619897    0.184845
      7          6           0        1.639180   -0.266079   -0.013922
      8          6           0        0.188640   -0.063848   -0.001255
      9          6           0       -0.294482    1.306522    0.001145
     10          6           0        0.608283    2.395245   -0.021791
     11          6           0        2.003661    2.180291   -0.044316
     12          6           0        2.500025    0.872383   -0.056061
     13          7           0       -2.839126    2.075810    0.026296
     14          6           0       -1.714583    1.654591    0.012884
     15          1           0       -0.667223   -3.331421   -0.593883
     16          1           0        3.188198   -1.680137    0.525684
     17          1           0        0.207280    3.417147   -0.022628
     18          1           0        2.686971    3.038756   -0.048112
     19          1           0        3.585317    0.700043   -0.073710
 ---------------------------------------------------------------------

 The electronic state is 1-A.
 Alpha  occ. eigenvalues --  -13.97966 -13.94657  -9.89865  -9.88436  -9.87860
 Alpha  occ. eigenvalues --   -9.87755  -9.86939  -9.86731  -9.86060  -9.85735
 Alpha  occ. eigenvalues --   -9.85491  -9.82194  -9.80349  -9.70125  -0.71395
 Alpha  occ. eigenvalues --   -0.68701  -0.67054  -0.61151  -0.58498  -0.53639
 Alpha  occ. eigenvalues --   -0.51395  -0.44673  -0.41596  -0.41031  -0.34498
 Alpha  occ. eigenvalues --   -0.32000  -0.29215  -0.27969  -0.25759  -0.22780
 Alpha  occ. eigenvalues --   -0.20711  -0.20394  -0.18915  -0.16942  -0.15600
 Alpha  occ. eigenvalues --   -0.14192  -0.13987  -0.13139  -0.12683  -0.11266
 Alpha  occ. eigenvalues --   -0.09181  -0.08924  -0.06405  -0.01852   0.01117
 Alpha  occ. eigenvalues --    0.09145
 Alpha virt. eigenvalues --    0.16976   0.22680   0.23121   0.25968   0.30186
 Alpha virt. eigenvalues --    0.30780   0.35693   0.37368   0.43888   0.45235
 Alpha virt. eigenvalues --    0.48179   0.49141   0.54102   0.57465   0.57811

 Mulliken charges:
               1
     1  N   -0.255397
     2  C    0.031578
     3  C   -0.058326
     4  C   -0.102800
     5  C   -0.182950
     6  C   -0.135144
     7  C   -0.018582
     8  C   -0.003922
     9  C   -0.033335
    10  C   -0.087138
    11  C   -0.108543
    12  C   -0.091080
    13  N   -0.230542
    14  C    0.050210
    15  H    0.036152
    16  H    0.021763
    17  H    0.061344
    18  H    0.051257
    19  H    0.055456
 Sum of Mulliken charges =  -1.00000

 Dipole moment (field-independent basis, Debye):
    X=              3.8533    Y=              4.1585    Z=             -0.2989  Tot=              5.6772
 Quadrupole moment (field-independent basis, Debye-Ang):
   XX=           -107.2047   YY=            -97.0131   ZZ=            -74.4787
   XY=              9.1847   XZ=              0.2518   YZ=              0.7897

 Normal termination of Gaussian 09 at Tue Jun 15 11:18:50 2021.
