 Gaussian 09, Revision D.01,
 Gaussian 09:  ES64L-G09RevD.01 24-Apr-2013

 -------------------
 #N B3LYP/STO-3G OPT
 -------------------

 -----
 2Naph
 -----
 Symbolic Z-matrix:
 Charge = -1 Multiplicity = 1

 SCF Done:  E(RB3LYP) =  -561.969125014     A.U. after   22 cycles
 SCF Done:  E(RB3LYP) =  -562.084604711     A.U. after   21 cycles
 SCF Done:  E(RB3LYP) =  -562.219640260     A.U. after   19 cycles
 SCF Done:  E(RB3LYP) =  -562.315094373     A.U. after   19 cycles
 SCF Done:  E(RB3LYP) =  -562.346333678     A.U. after   19 cycles
 SCF Done:  E(RB3LYP) =  -562.362852958     A.U. after   19 cycles
 SCF Done:  E(RB3LYP) =  -562.371034801     A.U. after   17 cycles
 SCF Done:  E(RB3LYP) =  -562.375902311     A.U. after   18 cycles
 SCF Done:  E(RB3LYP) =  -562.379103920     A.U. after   19 cycles
 SCF Done:  E(RB3LYP) =  -562.380584714     A.U. after   18 cycles
 SCF Done:  E(RB3LYP) =  -562.465514114     A.U. after   13 cycles
 SCF Done:  E(RB3LYP) =  -562.465554716     A.U. after   12 cycles
 SCF Done:  E(RB3LYP) =  -562.465615464     A.U. after   12 cycles
 SCF Done:  E(RB3LYP) =  -562.465666615     A.U. after   12 cycles
 SCF Done:  E(RB3LYP) =  -562.465711345     A.U. after   12 cycles
 SCF Done:  E(RB3LYP) =  -562.465744040     A.U. after   12 cycles
 SCF Done:  E(RB3LYP) =  -562.465753584     A.U. after   11 cycles
 SCF Done:  E(RB3LYP) =  -562.465754936     A.U. after   10 cycles
 SCF Done:  E(RB3LYP) =  -562.465755541     A.U. after    9 cycles
 SCF Done:  E(RB3LYP) =  -562.465755676     A.U. after    9 cycles
 Optimization completed.
    -- Stationary point found.

                         Standard orientation:
 ---------------------------------------------------------------------
 Center     Atomic      Atomic             Coordinates (Angstroms)
 Number     Number       Type             X           Y           Z
 ---------------------------------------------------------------------
      1          7           0        3.892401    2.015966    1.230640
      2          6           0        3.250188    1.315170    0.484501
      3          6           0        1.422898    0.213662   -1.064168
      4          6           0        2.630340    0.474325   -0.468328
      5          6           0        2.288207   -1.031309   -0.802672
      6          6           0        1.421835   -1.871631    0.073760
      7          6           0        0.141836   -1.315260    0.134587
      8          6           0        0.058960   -0.001969   -0.575376
      9          6           0       -1.124247    0.735962   -0.621300
     10          6           0       -2.300486    0.238477    0.015270
     11          6           0       -2.247141   -1.044256    0.686107
     12          6           0       -1.088323   -1.793410    0.748514
     13          7           0       -4.563711    1.611879   -0.042005
     14          6           0       -3.533640    0.992354   -0.013833
     15          1           0        2.915406   -1.501026   -1.580191
     16          1           0        1.690723   -2.863594    0.445754
     17          1           0       -1.164794    1.694550   -1.157463
     18          1           0       -3.169782   -1.423704    1.146656
     19          1           0       -1.094957   -2.773832    1.242415
 ---------------------------------------------------------------------

 The electronic state is 1-A.
 Alpha  occ. eigenvalues --  -13.95634 -13.95620  -9.87131  -9.86904  -9.86824
 Alpha  occ. eigenvalues --   -9.86765  -9.86708  -9.86137  -9.85560  -9.85169
 Alpha  occ. eigenvalues --   -9.84984  -9.84820  -9.84566  -9.79876  -0.70171
 Alpha  occ. eigenvalues --   -0.69945  -0.68590  -0.63937  -0.56795  -0.55408
 Alpha  occ. eigenvalues --   -0.50042  -0.44858  -0.42709  -0.39871  -0.36153
 Alpha  occ. eigenvalues --   -0.33034  -0.28935  -0.28155  -0.24648  -0.23661
 Alpha  occ. eigenvalues --   -0.21912  -0.18718  -0.17913  -0.17259  -0.15040
 Alpha  occ. eigenvalues --   -0.14531  -0.13831  -0.13238  -0.12990  -0.11245
 Alpha  occ. eigenvalues --   -0.10027  -0.09406  -0.06195  -0.03311  -0.01455
 Alpha  occ. eigenvalues --    0.06842
 Alpha virt. eigenvalues --    0.16788   0.22469   0.24223   0.27898   0.28042
 Alpha virt. eigenvalues --    0.33278   0.34353   0.41658   0.43510   0.45764
 Alpha virt. eigenvalues --    0.48826   0.51801   0.54995   0.55220   0.56198

 Mulliken charges:
               1
     1  N   -0.257113
     2  C    0.026310
     3  C   -0.049769
     4  C   -0.085947
     5  C   -0.080377
     6  C   -0.150367
     7  C   -0.021186
     8  C   -0.037163
     9  C   -0.084456
    10  C   -0.062413
    11  C   -0.089517
    12  C   -0.112530
    13  N   -0.268487
    14  C    0.028723
    15  H    0.047538
    16  H    0.031506
    17  H    0.064094
    18  H    0.053567
    19  H    0.047586
 Sum of Mulliken charges =  -1.00000

 Dipole moment (field-independent basis, Debye):
    X=             -0.2510    Y=             -3.1815    Z=             -1.2293  Tot=              3.4199
 Quadrupole moment (field-independent basis, Debye-Ang):
   XX=           -131.1841   YY=            -85.8890   ZZ=            -77.8255
   XY=              0.6400   XZ=             -6.6727   YZ=             -4.8356

 Normal termination of Gaussian 09 at Tue Jun 15 11:32:20 2021.
