 Gaussian 09, Revision D.01,
 Gaussian 09:  ES64L-G09RevD.01 24-Apr-2013

 -------------------
 #N B3LYP/STO-3G OPT
 -------------------

 -----
 2Naph
 -----
 Symbolic Z-matrix:
 Charge = -1 Multiplicity = 1

 SCF Done:  E(RB3LYP) =  -562.482624871     A.U. after   30 cycles
 SCF Done:  E(RB3LYP) =  -562.514329523     A.U. after   18 cycles
 SCF Done:  E(RB3LYP) =  -562.518047369     A.U. after   15 cycles
 SCF Done:  E(RB3LYP) =  -562.517935606     A.U. after   13 cycles
 SCF Done:  E(RB3LYP) =  -562.518135537     A.U. after    9 cycles
 SCF Done:  E(RB3LYP) =  -562.518191157     A.U. after   14 cycles
 SCF Done:  E(RB3LYP) =  -562.518246034     A.U. after   13 cycles
 SCF Done:  E(RB3LYP) =  -562.518250196     A.U. after   11 cycles
 SCF Done:  E(RB3LYP) =  -562.518255100     A.U. after   11 cycles
 Optimization completed.
    -- Stationary point found.

                         Standard orientation:
 ---------------------------------------------------------------------
 Center     Atomic      Atomic             Coordinates (Angstroms)
 Number     Number       Type             X           Y           Z
 ---------------------------------------------------------------------
      1          7           0        4.918112   -0.244430   -0.000264
      2          6           0        3.718232   -0.226442   -0.000158
      3          6           0        1.547968    1.003584   -0.000378
      4          6           0        2.258829   -0.210806   -0.000011
      5          6           0        1.528357   -1.455168    0.000537
      6          6           0        0.145461   -1.441854    0.000616
      7          6           0       -0.594195   -0.202742    0.000159
      8          6           0        0.111946    1.077640   -0.000194
      9          6           0       -0.494470    2.441668   -0.000157
     10          6           0       -1.929780    2.298588    0.000444
     11          6           0       -2.674822    1.098852    0.000143
     12          6           0       -2.038196   -0.168040    0.000006
     13          7           0       -3.487279   -2.391102   -0.000583
     14          6           0       -2.823792   -1.389924   -0.000318
     15          1           0        2.102460    1.954125   -0.000700
     16          1           0        2.083097   -2.402630    0.000928
     17          1           0       -0.412200   -2.388998    0.001064
     18          1           0       -2.545425    3.216109    0.000690
     19          1           0       -3.776985    1.117981   -0.000177
 ---------------------------------------------------------------------

 The electronic state is 1-A.
 Alpha  occ. eigenvalues --  -13.99006 -13.96421  -9.90015  -9.89580  -9.88105
 Alpha  occ. eigenvalues --   -9.87395  -9.87290  -9.87054  -9.86916  -9.86762
 Alpha  occ. eigenvalues --   -9.85425  -9.83221  -9.79604  -9.67720  -0.72635
 Alpha  occ. eigenvalues --   -0.70658  -0.66992  -0.62260  -0.57377  -0.54731
 Alpha  occ. eigenvalues --   -0.51731  -0.44211  -0.42489  -0.39964  -0.35396
 Alpha  occ. eigenvalues --   -0.32758  -0.30857  -0.26012  -0.25247  -0.23233
 Alpha  occ. eigenvalues --   -0.20703  -0.20448  -0.19634  -0.17686  -0.17263
 Alpha  occ. eigenvalues --   -0.15400  -0.13920  -0.13873  -0.13238  -0.12185
 Alpha  occ. eigenvalues --   -0.09841  -0.09223  -0.06884  -0.03446   0.01859
 Alpha  occ. eigenvalues --    0.10504
 Alpha virt. eigenvalues --    0.18099   0.19876   0.24656   0.25735   0.27544
 Alpha virt. eigenvalues --    0.29267   0.35111   0.37323   0.43252   0.45630
 Alpha virt. eigenvalues --    0.46208   0.51221   0.53566   0.54836   0.56013

 Mulliken charges:
               1
     1  N   -0.243866
     2  C    0.044989
     3  C   -0.061577
     4  C   -0.045618
     5  C   -0.087899
     6  C   -0.095955
     7  C   -0.011360
     8  C   -0.050175
     9  C   -0.199578
    10  C   -0.148050
    11  C   -0.082941
    12  C   -0.061698
    13  N   -0.262502
    14  C    0.035243
    15  H    0.076660
    16  H    0.061753
    17  H    0.065788
    18  H    0.018876
    19  H    0.047910
 Sum of Mulliken charges =  -1.00000

 Dipole moment (field-independent basis, Debye):
    X=              0.0635    Y=             -2.0530    Z=              0.0015  Tot=              2.0539
 Quadrupole moment (field-independent basis, Debye-Ang):
   XX=           -122.8210   YY=            -97.6620   ZZ=            -74.1405
   XY=             -7.6527   XZ=              0.0000   YZ=             -0.0021

 Normal termination of Gaussian 09 at Tue Jun 15 11:13:14 2021.
