 Gaussian 09, Revision D.01,
 Gaussian 09:  ES64L-G09RevD.01 24-Apr-2013

 -------------------
 #N B3LYP/STO-3G OPT
 -------------------

 -----
 1Naph
 -----
 Symbolic Z-matrix:
 Charge = -1 Multiplicity = 1

 SCF Done:  E(RB3LYP) =  -562.478933213     A.U. after   36 cycles
 SCF Done:  E(RB3LYP) =  -562.503950152     A.U. after   17 cycles
 SCF Done:  E(RB3LYP) =  -562.506194999     A.U. after   19 cycles
 SCF Done:  E(RB3LYP) =  -562.503805205     A.U. after   19 cycles
 SCF Done:  E(RB3LYP) =  -562.506697737     A.U. after   14 cycles
 SCF Done:  E(RB3LYP) =  -562.506885767     A.U. after   14 cycles
 SCF Done:  E(RB3LYP) =  -562.506909653     A.U. after   14 cycles
 SCF Done:  E(RB3LYP) =  -562.506886559     A.U. after   14 cycles
 SCF Done:  E(RB3LYP) =  -562.506926490     A.U. after   13 cycles
 SCF Done:  E(RB3LYP) =  -562.506929473     A.U. after   11 cycles
 SCF Done:  E(RB3LYP) =  -562.506929981     A.U. after   10 cycles
 Optimization completed.
    -- Stationary point found.

                         Standard orientation:
 ---------------------------------------------------------------------
 Center     Atomic      Atomic             Coordinates (Angstroms)
 Number     Number       Type             X           Y           Z
 ---------------------------------------------------------------------
      1          7           0        4.100147   -0.928761    0.094929
      2          6           0        2.901117   -0.866095    0.060738
      3          6           0        1.443370   -0.840651    0.015514
      4          6           0        0.749715   -2.077517   -0.037280
      5          6           0       -0.655237   -2.106752   -0.031656
      6          6           0       -1.398132   -0.899928   -0.007019
      7          6           0       -0.730164    0.388535    0.003546
      8          6           0        0.734660    0.425295    0.008838
      9          6           0        1.378140    1.707848   -0.140179
     10          6           0        0.710003    2.943720   -0.128845
     11          6           0       -0.705132    2.832370    0.131436
     12          6           0       -1.428582    1.637464    0.029802
     13          7           0       -4.051338   -1.064206   -0.001889
     14          6           0       -2.853381   -0.974396    0.000500
     15          1           0        1.317678   -3.015559   -0.078496
     16          1           0       -1.185399   -3.067171   -0.052842
     17          1           0        2.458747    1.655794   -0.357296
     18          1           0       -1.283373    3.743675    0.371503
     19          1           0       -2.527577    1.614674    0.033480
 ---------------------------------------------------------------------

 The electronic state is 1-A.
 Alpha  occ. eigenvalues --  -13.98390 -13.98117  -9.89914  -9.89674  -9.89026
 Alpha  occ. eigenvalues --   -9.88738  -9.87956  -9.87801  -9.87012  -9.86659
 Alpha  occ. eigenvalues --   -9.82869  -9.81439  -9.79629  -9.69491  -0.72106
 Alpha  occ. eigenvalues --   -0.71712  -0.67325  -0.60987  -0.59414  -0.53291
 Alpha  occ. eigenvalues --   -0.50773  -0.46691  -0.41179  -0.39674  -0.34831
 Alpha  occ. eigenvalues --   -0.33214  -0.29837  -0.27774  -0.24207  -0.22440
 Alpha  occ. eigenvalues --   -0.21009  -0.20649  -0.19517  -0.17641  -0.17291
 Alpha  occ. eigenvalues --   -0.15006  -0.14417  -0.13648  -0.13026  -0.12551
 Alpha  occ. eigenvalues --   -0.11589  -0.09897  -0.06400  -0.01917   0.01165
 Alpha  occ. eigenvalues --    0.10044
 Alpha virt. eigenvalues --    0.15115   0.23016   0.25878   0.26276   0.26597
 Alpha virt. eigenvalues --    0.26996   0.34870   0.37480   0.43419   0.45051
 Alpha virt. eigenvalues --    0.45453   0.51307   0.53907   0.57159   0.57874

 Mulliken charges:
               1
     1  N   -0.242667
     2  C    0.049298
     3  C   -0.033218
     4  C   -0.094003
     5  C   -0.093259
     6  C   -0.034126
     7  C   -0.013449
     8  C   -0.008421
     9  C   -0.143165
    10  C   -0.180351
    11  C   -0.116738
    12  C   -0.117466
    13  N   -0.244707
    14  C    0.045950
    15  H    0.060855
    16  H    0.061122
    17  H    0.030740
    18  H    0.027245
    19  H    0.046359
 Sum of Mulliken charges =  -1.00000

 Dipole moment (field-independent basis, Debye):
    X=             -1.3001    Y=             -4.0998    Z=              0.1756  Tot=              4.3046
 Quadrupole moment (field-independent basis, Debye-Ang):
   XX=           -120.4249   YY=            -94.8785   ZZ=            -74.5445
   XY=             -5.4516   XZ=             -0.1801   YZ=              1.4149

 Normal termination of Gaussian 09 at Tue Jun 15 11:20:26 2021.
