 Gaussian 09, Revision D.01,
 Gaussian 09:  ES64L-G09RevD.01 24-Apr-2013

 -------------------
 #N B3LYP/STO-3G OPT
 -------------------

 -----
 2Naph
 -----
 Symbolic Z-matrix:
 Charge = -1 Multiplicity = 1

 SCF Done:  E(RB3LYP) =  -562.481585184     A.U. after   27 cycles
 SCF Done:  E(RB3LYP) =  -562.513868631     A.U. after   17 cycles
 SCF Done:  E(RB3LYP) =  -562.517047528     A.U. after   17 cycles
 SCF Done:  E(RB3LYP) =  -562.513765009     A.U. after   18 cycles
 SCF Done:  E(RB3LYP) =  -562.517672694     A.U. after   13 cycles
 SCF Done:  E(RB3LYP) =  -562.517898020     A.U. after   13 cycles
 SCF Done:  E(RB3LYP) =  -562.517915925     A.U. after   12 cycles
 SCF Done:  E(RB3LYP) =  -562.517910682     A.U. after   14 cycles
 SCF Done:  E(RB3LYP) =  -562.517917636     A.U. after   13 cycles
 SCF Done:  E(RB3LYP) =  -562.517917737     A.U. after    9 cycles
 Optimization completed.
    -- Stationary point found.

                         Standard orientation:
 ---------------------------------------------------------------------
 Center     Atomic      Atomic             Coordinates (Angstroms)
 Number     Number       Type             X           Y           Z
 ---------------------------------------------------------------------
      1          7           0       -4.235276   -0.515640   -0.000088
      2          6           0       -3.035010   -0.549025   -0.000024
      3          6           0       -0.757088    0.476324    0.000056
      4          6           0       -1.575006   -0.691287    0.000113
      5          6           0       -0.986950   -1.999702    0.000269
      6          6           0        0.409218   -2.323400   -0.000068
      7          6           0        1.201441   -1.064623   -0.000097
      8          6           0        0.680292    0.296572    0.000120
      9          6           0        1.582338    1.420606    0.000303
     10          6           0        2.956180    1.232416    0.000176
     11          6           0        3.498587   -0.090463   -0.000156
     12          6           0        2.643230   -1.185275   -0.000296
     13          7           0       -1.814872    2.909666   -0.000258
     14          6           0       -1.343593    1.804607   -0.000104
     15          1           0       -1.727188   -2.819240    0.000556
     16          1           0        1.161124    2.435658    0.000556
     17          1           0        3.632424    2.097996    0.000336
     18          1           0        4.587791   -0.227919   -0.000279
     19          1           0        3.055042   -2.205179   -0.000504
 ---------------------------------------------------------------------

 The electronic state is 1-A.
 Alpha  occ. eigenvalues --  -13.97648 -13.96903  -9.88945  -9.88016  -9.87909
 Alpha  occ. eigenvalues --   -9.87707  -9.86986  -9.86796  -9.86325  -9.86138
 Alpha  occ. eigenvalues --   -9.85527  -9.83108  -9.80570  -9.67911  -0.71314
 Alpha  occ. eigenvalues --   -0.70570  -0.66427  -0.62413  -0.56553  -0.54744
 Alpha  occ. eigenvalues --   -0.51655  -0.44412  -0.41377  -0.40519  -0.34158
 Alpha  occ. eigenvalues --   -0.32825  -0.31196  -0.25604  -0.24123  -0.23584
 Alpha  occ. eigenvalues --   -0.21845  -0.19986  -0.19566  -0.16296  -0.15791
 Alpha  occ. eigenvalues --   -0.14436  -0.14425  -0.13364  -0.12529  -0.12105
 Alpha  occ. eigenvalues --   -0.09661  -0.09337  -0.06420  -0.03144   0.01671
 Alpha  occ. eigenvalues --    0.10380
 Alpha virt. eigenvalues --    0.17385   0.22033   0.24051   0.26802   0.27834
 Alpha virt. eigenvalues --    0.30475   0.34779   0.37166   0.43432   0.46104
 Alpha virt. eigenvalues --    0.48214   0.49455   0.52922   0.56112   0.57740

 Mulliken charges:
               1
     1  N   -0.241566
     2  C    0.045848
     3  C   -0.046701
     4  C   -0.020732
     5  C   -0.134477
     6  C   -0.200623
     7  C   -0.046916
     8  C   -0.014907
     9  C   -0.096922
    10  C   -0.097971
    11  C   -0.110207
    12  C   -0.080633
    13  N   -0.249263
    14  C    0.041335
    15  H    0.029131
    16  H    0.062956
    17  H    0.050741
    18  H    0.047334
    19  H    0.063574
 Sum of Mulliken charges =  -1.00000

 Dipole moment (field-independent basis, Debye):
    X=              4.3830    Y=              1.7423    Z=              0.0007  Tot=              4.7166
 Quadrupole moment (field-independent basis, Debye-Ang):
   XX=           -106.4041   YY=            -99.8510   ZZ=            -74.1563
   XY=              7.2666   XZ=             -0.0009   YZ=              0.0008

 Normal termination of Gaussian 09 at Tue Jun 15 11:14:05 2021.
