 Gaussian 09, Revision D.01,
 Gaussian 09:  ES64L-G09RevD.01 24-Apr-2013

 -------------------
 #N B3LYP/STO-3G OPT
 -------------------

 -----
 1Naph
 -----
 Symbolic Z-matrix:
 Charge = -1 Multiplicity = 1

 SCF Done:  E(RB3LYP) =  -562.476682673     A.U. after   28 cycles
 SCF Done:  E(RB3LYP) =  -562.504235808     A.U. after   19 cycles
 SCF Done:  E(RB3LYP) =  -562.506978645     A.U. after   19 cycles
 SCF Done:  E(RB3LYP) =  -562.505906020     A.U. after   20 cycles
 SCF Done:  E(RB3LYP) =  -562.507244388     A.U. after   12 cycles
 SCF Done:  E(RB3LYP) =  -562.507617282     A.U. after   19 cycles
 SCF Done:  E(RB3LYP) =  -562.507391710     A.U. after   21 cycles
 SCF Done:  E(RB3LYP) =  -562.507735650     A.U. after   13 cycles
 SCF Done:  E(RB3LYP) =  -562.507837006     A.U. after   18 cycles
 SCF Done:  E(RB3LYP) =  -562.507862792     A.U. after   18 cycles
 SCF Done:  E(RB3LYP) =  -562.507870252     A.U. after   18 cycles
 SCF Done:  E(RB3LYP) =  -562.507873195     A.U. after   18 cycles
 SCF Done:  E(RB3LYP) =  -562.507874075     A.U. after   13 cycles
 SCF Done:  E(RB3LYP) =  -562.507874376     A.U. after   13 cycles
 SCF Done:  E(RB3LYP) =  -562.507874466     A.U. after   12 cycles
 Optimization completed.
    -- Stationary point found.

                         Standard orientation:
 ---------------------------------------------------------------------
 Center     Atomic      Atomic             Coordinates (Angstroms)
 Number     Number       Type             X           Y           Z
 ---------------------------------------------------------------------
      1          7           0        4.052251   -1.064696    0.000386
      2          6           0        2.861428   -0.902840   -0.003549
      3          6           0        1.386727   -0.901712    0.006557
      4          6           0        0.678678   -2.119807   -0.005612
      5          6           0       -0.737603   -2.096126   -0.003892
      6          6           0       -1.435041   -0.872876    0.008965
      7          6           0       -0.721816    0.397493    0.024829
      8          6           0        0.745682    0.392341    0.013558
      9          6           0        1.648719    1.564035    0.002438
     10          6           0        0.848839    2.748686   -0.028348
     11          6           0       -0.576336    2.817763   -0.005821
     12          6           0       -1.370233    1.667074    0.025597
     13          7           0       -4.097204   -0.922452   -0.015706
     14          6           0       -2.896920   -0.898226   -0.009207
     15          1           0        1.212485   -3.078017   -0.018866
     16          1           0       -1.299694   -3.039471   -0.017967
     17          1           0        1.354866    3.730796   -0.050952
     18          1           0       -1.080697    3.798192   -0.002063
     19          1           0       -2.465043    1.723698    0.043996
 ---------------------------------------------------------------------

 The electronic state is 1-A.
 Alpha  occ. eigenvalues --  -13.98978 -13.96669  -9.90387  -9.89755  -9.89494
 Alpha  occ. eigenvalues --   -9.88714  -9.87666  -9.87606  -9.86380  -9.83517
 Alpha  occ. eigenvalues --   -9.83176  -9.82631  -9.78416  -9.66551  -0.72537
 Alpha  occ. eigenvalues --   -0.70237  -0.67004  -0.60946  -0.58901  -0.53674
 Alpha  occ. eigenvalues --   -0.49657  -0.46250  -0.41383  -0.39268  -0.34434
 Alpha  occ. eigenvalues --   -0.32026  -0.29881  -0.28429  -0.24853  -0.21935
 Alpha  occ. eigenvalues --   -0.20718  -0.19911  -0.18950  -0.16819  -0.16764
 Alpha  occ. eigenvalues --   -0.15161  -0.13703  -0.13163  -0.13096  -0.11031
 Alpha  occ. eigenvalues --   -0.10967  -0.08872  -0.05592  -0.02812   0.02619
 Alpha  occ. eigenvalues --    0.11395
 Alpha virt. eigenvalues --    0.15746   0.22795   0.25857   0.26714   0.28004
 Alpha virt. eigenvalues --    0.28273   0.35388   0.37276   0.43190   0.45405
 Alpha virt. eigenvalues --    0.46392   0.50754   0.53313   0.55921   0.59133

 Mulliken charges:
               1
     1  N   -0.242515
     2  C    0.069643
     3  C   -0.005699
     4  C   -0.101573
     5  C   -0.084595
     6  C   -0.030664
     7  C   -0.017664
     8  C   -0.035520
     9  C   -0.209561
    10  C   -0.147420
    11  C   -0.096354
    12  C   -0.127531
    13  N   -0.241351
    14  C    0.048654
    15  H    0.062071
    16  H    0.063020
    17  H    0.014806
    18  H    0.036278
    19  H    0.045974
 Sum of Mulliken charges =  -1.00000

 Dipole moment (field-independent basis, Debye):
    X=             -3.1959    Y=             -2.6774    Z=             -0.0289  Tot=              4.1693
 Quadrupole moment (field-independent basis, Debye-Ang):
   XX=           -126.1621   YY=            -83.4620   ZZ=            -74.1788
   XY=             -5.1865   XZ=             -0.1907   YZ=              0.0305

 Normal termination of Gaussian 09 at Tue Jun 15 11:20:14 2021.
