 Gaussian 09, Revision D.01,
 Gaussian 09:  ES64L-G09RevD.01 24-Apr-2013

 -------------------
 #N B3LYP/STO-3G OPT
 -------------------

 -----
 1Naph
 -----
 Symbolic Z-matrix:
 Charge = -1 Multiplicity = 1

 SCF Done:  E(RB3LYP) =  -562.481872755     A.U. after   25 cycles
 SCF Done:  E(RB3LYP) =  -562.511941581     A.U. after   16 cycles
 SCF Done:  E(RB3LYP) =  -562.515504861     A.U. after   18 cycles
 SCF Done:  E(RB3LYP) =  -562.513844113     A.U. after   18 cycles
 SCF Done:  E(RB3LYP) =  -562.516348763     A.U. after   12 cycles
 SCF Done:  E(RB3LYP) =  -562.516894666     A.U. after   14 cycles
 SCF Done:  E(RB3LYP) =  -562.516855132     A.U. after   16 cycles
 SCF Done:  E(RB3LYP) =  -562.517143838     A.U. after   11 cycles
 SCF Done:  E(RB3LYP) =  -562.517487119     A.U. after   16 cycles
 SCF Done:  E(RB3LYP) =  -562.517606848     A.U. after   13 cycles
 SCF Done:  E(RB3LYP) =  -562.517625379     A.U. after   11 cycles
 SCF Done:  E(RB3LYP) =  -562.517626558     A.U. after   10 cycles
 SCF Done:  E(RB3LYP) =  -562.517626741     A.U. after    9 cycles
 Optimization completed.
    -- Stationary point found.

                         Standard orientation:
 ---------------------------------------------------------------------
 Center     Atomic      Atomic             Coordinates (Angstroms)
 Number     Number       Type             X           Y           Z
 ---------------------------------------------------------------------
      1          7           0       -3.548988   -2.322012   -0.084056
      2          6           0       -2.856342   -1.339791   -0.052277
      3          6           0       -2.065496   -0.124741    0.016476
      4          6           0       -2.668980    1.153844    0.251116
      5          6           0       -1.999396    2.370227   -0.031170
      6          6           0       -0.622055    2.293657   -0.195877
      7          6           0        0.132814    1.058632    0.002594
      8          6           0       -0.618435   -0.193835   -0.012685
      9          6           0        0.112419   -1.434110   -0.024162
     10          6           0        1.499255   -1.462928   -0.004628
     11          6           0        2.248021   -0.234623    0.025536
     12          6           0        1.555295    0.996741    0.045236
     13          7           0        4.904908   -0.297268    0.032333
     14          6           0        3.704692   -0.268521    0.024054
     15          1           0       -3.697596    1.154403    0.654122
     16          1           0       -0.036142    3.151201   -0.569074
     17          1           0       -0.454996   -2.374408   -0.040981
     18          1           0        2.039244   -2.418459   -0.013049
     19          1           0        2.127306    1.934917    0.065766
 ---------------------------------------------------------------------

 The electronic state is 1-A.
 Alpha  occ. eigenvalues --  -13.98963 -13.95298  -9.90184  -9.89580  -9.87906
 Alpha  occ. eigenvalues --   -9.87644  -9.87437  -9.86854  -9.86316  -9.86293
 Alpha  occ. eigenvalues --   -9.85977  -9.82668  -9.80881  -9.70909  -0.72671
 Alpha  occ. eigenvalues --   -0.69711  -0.67377  -0.61815  -0.58093  -0.54569
 Alpha  occ. eigenvalues --   -0.51723  -0.44620  -0.42135  -0.41348  -0.35020
 Alpha  occ. eigenvalues --   -0.32916  -0.28590  -0.27884  -0.25729  -0.23696
 Alpha  occ. eigenvalues --   -0.21786  -0.20761  -0.19520  -0.17510  -0.16269
 Alpha  occ. eigenvalues --   -0.15447  -0.13980  -0.13696  -0.13518  -0.12164
 Alpha  occ. eigenvalues --   -0.10984  -0.08935  -0.07345  -0.02125   0.00653
 Alpha  occ. eigenvalues --    0.08593
 Alpha virt. eigenvalues --    0.17352   0.20025   0.24306   0.25648   0.28395
 Alpha virt. eigenvalues --    0.29612   0.34918   0.37355   0.43213   0.43911
 Alpha virt. eigenvalues --    0.47805   0.51514   0.53888   0.56186   0.57533

 Mulliken charges:
               1
     1  N   -0.268156
     2  C    0.030116
     3  C   -0.058994
     4  C   -0.105239
     5  C   -0.176668
     6  C   -0.133017
     7  C   -0.020422
     8  C   -0.006698
     9  C   -0.096267
    10  C   -0.090746
    11  C   -0.042745
    12  C   -0.081202
    13  N   -0.245918
    14  C    0.042084
    15  H    0.035378
    16  H    0.024970
    17  H    0.067620
    18  H    0.061357
    19  H    0.064549
 Sum of Mulliken charges =  -1.00000

 Dipole moment (field-independent basis, Debye):
    X=              2.3423    Y=             -1.0399    Z=              0.1971  Tot=              2.5703
 Quadrupole moment (field-independent basis, Debye-Ang):
   XX=           -131.0470   YY=            -93.4844   ZZ=            -74.4609
   XY=             -0.6885   XZ=             -1.0124   YZ=              0.1099

 Normal termination of Gaussian 09 at Tue Jun 15 11:18:32 2021.
