 Gaussian 09, Revision D.01,
 Gaussian 09:  ES64L-G09RevD.01 24-Apr-2013

 -------------------
 #N B3LYP/STO-3G OPT
 -------------------

 -----
 1Naph
 -----
 Symbolic Z-matrix:
 Charge = -1 Multiplicity = 1

 SCF Done:  E(RB3LYP) =  -562.259131663     A.U. after   21 cycles
 SCF Done:  E(RB3LYP) =  -562.333395873     A.U. after   17 cycles
 SCF Done:  E(RB3LYP) =  -562.412703285     A.U. after   18 cycles
 SCF Done:  E(RB3LYP) =  -562.466519346     A.U. after   19 cycles
 SCF Done:  E(RB3LYP) =  -562.491000955     A.U. after   19 cycles
 SCF Done:  E(RB3LYP) =  -562.499973958     A.U. after   20 cycles
 SCF Done:  E(RB3LYP) =  -562.507945556     A.U. after   22 cycles
 SCF Done:  E(RB3LYP) =  -562.513244368     A.U. after   20 cycles
 SCF Done:  E(RB3LYP) =  -562.514007527     A.U. after   19 cycles
 SCF Done:  E(RB3LYP) =  -562.512817598     A.U. after   18 cycles
 SCF Done:  E(RB3LYP) =  -562.515219970     A.U. after   12 cycles
 SCF Done:  E(RB3LYP) =  -562.514843918     A.U. after   19 cycles
 SCF Done:  E(RB3LYP) =  -562.515933303     A.U. after   15 cycles
 SCF Done:  E(RB3LYP) =  -562.515971736     A.U. after   14 cycles
 SCF Done:  E(RB3LYP) =  -562.515974854     A.U. after   13 cycles
 SCF Done:  E(RB3LYP) =  -562.515975535     A.U. after   11 cycles
 SCF Done:  E(RB3LYP) =  -562.515976086     A.U. after   10 cycles
 Optimization completed.
    -- Stationary point found.

                         Standard orientation:
 ---------------------------------------------------------------------
 Center     Atomic      Atomic             Coordinates (Angstroms)
 Number     Number       Type             X           Y           Z
 ---------------------------------------------------------------------
      1          7           0        4.227073    0.799598    0.000127
      2          6           0        3.153796    0.260330    0.000311
      3          6           0        1.863450   -0.405647    0.000042
      4          6           0        1.776131   -1.816878    0.000285
      5          6           0        0.525368   -2.483839   -0.000315
      6          6           0       -0.780751   -1.884324   -0.000580
      7          6           0       -0.615120   -0.407722   -0.000163
      8          6           0        0.627177    0.352364   -0.000054
      9          6           0        0.595175    1.789664   -0.000249
     10          6           0       -0.610636    2.483884   -0.000177
     11          6           0       -1.847848    1.778896    0.000080
     12          6           0       -1.837055    0.375205    0.000036
     13          7           0       -4.211003   -0.846517    0.000334
     14          6           0       -3.110203   -0.366558    0.000241
     15          1           0        2.718245   -2.388950    0.000922
     16          1           0        0.598590   -3.586123   -0.000364
     17          1           0        1.547001    2.340065   -0.000517
     18          1           0       -0.615811    3.581954   -0.000408
     19          1           0       -2.797418    2.329244    0.000401
 ---------------------------------------------------------------------

 The electronic state is 1-A.
 Alpha  occ. eigenvalues --  -13.96725 -13.96212  -9.89333  -9.87686  -9.87578
 Alpha  occ. eigenvalues --   -9.87456  -9.87223  -9.87026  -9.86783  -9.86538
 Alpha  occ. eigenvalues --   -9.85115  -9.83485  -9.79374  -9.67662  -0.70516
 Alpha  occ. eigenvalues --   -0.70281  -0.66764  -0.61837  -0.57735  -0.54043
 Alpha  occ. eigenvalues --   -0.51411  -0.44310  -0.41717  -0.40188  -0.35274
 Alpha  occ. eigenvalues --   -0.31967  -0.30204  -0.27321  -0.24984  -0.22173
 Alpha  occ. eigenvalues --   -0.20499  -0.19851  -0.19365  -0.17982  -0.16619
 Alpha  occ. eigenvalues --   -0.13521  -0.13239  -0.13098  -0.12107  -0.11250
 Alpha  occ. eigenvalues --   -0.10048  -0.09041  -0.05810  -0.03387   0.02068
 Alpha  occ. eigenvalues --    0.10705
 Alpha virt. eigenvalues --    0.17521   0.22187   0.23917   0.27556   0.28403
 Alpha virt. eigenvalues --    0.30649   0.34996   0.37648   0.44724   0.46216
 Alpha virt. eigenvalues --    0.46254   0.50221   0.53454   0.55971   0.56452

 Mulliken charges:
               1
     1  N   -0.264118
     2  C    0.034729
     3  C   -0.061807
     4  C   -0.083905
     5  C   -0.146721
     6  C   -0.196716
     7  C   -0.037829
     8  C   -0.015924
     9  C   -0.091615
    10  C   -0.098006
    11  C   -0.097335
    12  C   -0.012342
    13  N   -0.243487
    14  C    0.068583
    15  H    0.047475
    16  H    0.020054
    17  H    0.064726
    18  H    0.054309
    19  H    0.059929
 Sum of Mulliken charges =  -1.00000

 Dipole moment (field-independent basis, Debye):
    X=              0.8954    Y=              3.9141    Z=              0.0011  Tot=              4.0152
 Quadrupole moment (field-independent basis, Debye-Ang):
   XX=           -124.2613   YY=            -85.6956   ZZ=            -74.1485
   XY=            -15.0159   XZ=              0.0000   YZ=             -0.0036

 Normal termination of Gaussian 09 at Tue Jun 15 11:21:04 2021.
