 Gaussian 09, Revision D.01,
 Gaussian 09:  ES64L-G09RevD.01 24-Apr-2013

 -------------------
 #N B3LYP/STO-3G OPT
 -------------------

 -----
 2Naph
 -----
 Symbolic Z-matrix:
 Charge = -1 Multiplicity = 1

 SCF Done:  E(RB3LYP) =  -562.487246556     A.U. after   30 cycles
 SCF Done:  E(RB3LYP) =  -562.517160506     A.U. after   18 cycles
 SCF Done:  E(RB3LYP) =  -562.521002363     A.U. after   13 cycles
 SCF Done:  E(RB3LYP) =  -562.521141955     A.U. after   12 cycles
 SCF Done:  E(RB3LYP) =  -562.520875569     A.U. after   15 cycles
 SCF Done:  E(RB3LYP) =  -562.521180804     A.U. after    9 cycles
 SCF Done:  E(RB3LYP) =  -562.521194507     A.U. after   10 cycles
 SCF Done:  E(RB3LYP) =  -562.521195771     A.U. after   10 cycles
 SCF Done:  E(RB3LYP) =  -562.521196177     A.U. after    9 cycles
 SCF Done:  E(RB3LYP) =  -562.521196237     A.U. after    8 cycles
 Optimization completed.
    -- Stationary point found.

                         Standard orientation:
 ---------------------------------------------------------------------
 Center     Atomic      Atomic             Coordinates (Angstroms)
 Number     Number       Type             X           Y           Z
 ---------------------------------------------------------------------
      1          7           0       -4.895296   -0.266402   -0.000346
      2          6           0       -3.695404   -0.244155    0.000361
      3          6           0       -1.540170    1.001868    0.000249
      4          6           0       -2.237034   -0.220347    0.000172
      5          6           0       -1.493090   -1.456679   -0.000105
      6          6           0       -0.108348   -1.436680   -0.000260
      7          6           0        0.638527   -0.201052   -0.000132
      8          6           0       -0.114607    1.040554    0.000110
      9          6           0        0.637065    2.276285    0.000105
     10          6           0        2.021503    2.254153   -0.000233
     11          6           0        2.911105    1.066262   -0.000084
     12          6           0        2.090676   -0.114903   -0.000083
     13          7           0        3.413424   -2.442797    0.000220
     14          6           0        2.804542   -1.408673    0.000115
     15          1           0       -2.101784    1.946841    0.000427
     16          1           0       -2.042463   -2.407184   -0.000162
     17          1           0        0.453293   -2.381234   -0.000447
     18          1           0        0.066708    3.218128    0.000286
     19          1           0        2.508759    3.248035   -0.000513
 ---------------------------------------------------------------------

 The electronic state is 1-A.
 Alpha  occ. eigenvalues --  -14.00009 -13.93162  -9.91221  -9.90522  -9.89130
 Alpha  occ. eigenvalues --   -9.88608  -9.87377  -9.87291  -9.87155  -9.84686
 Alpha  occ. eigenvalues --   -9.84088  -9.82675  -9.81779  -9.68116  -0.73552
 Alpha  occ. eigenvalues --   -0.68455  -0.67505  -0.61916  -0.58937  -0.54022
 Alpha  occ. eigenvalues --   -0.52650  -0.44248  -0.42938  -0.41101  -0.35804
 Alpha  occ. eigenvalues --   -0.31866  -0.30401  -0.27616  -0.26230  -0.24045
 Alpha  occ. eigenvalues --   -0.21416  -0.21271  -0.19309  -0.17862  -0.17048
 Alpha  occ. eigenvalues --   -0.15916  -0.14558  -0.13159  -0.12708  -0.10843
 Alpha  occ. eigenvalues --   -0.10151  -0.07888  -0.07425  -0.02752   0.01101
 Alpha  occ. eigenvalues --    0.10458
 Alpha virt. eigenvalues --    0.17120   0.19593   0.24803   0.25936   0.29258
 Alpha virt. eigenvalues --    0.31004   0.34066   0.37645   0.42197   0.45842
 Alpha virt. eigenvalues --    0.48107   0.50543   0.52668   0.54213   0.56181

 Mulliken charges:
               1
     1  N   -0.240018
     2  C    0.045211
     3  C   -0.075118
     4  C   -0.039943
     5  C   -0.089039
     6  C   -0.091513
     7  C   -0.009304
     8  C   -0.025845
     9  C   -0.104412
    10  C   -0.117844
    11  C   -0.195806
    12  C   -0.083171
    13  N   -0.281496
    14  C    0.036680
    15  H    0.066282
    16  H    0.063776
    17  H    0.074219
    18  H    0.040739
    19  H    0.026601
 Sum of Mulliken charges =  -1.00000

 Dipole moment (field-independent basis, Debye):
    X=             -5.1210    Y=              1.1028    Z=              0.0005  Tot=              5.2384
 Quadrupole moment (field-independent basis, Debye-Ang):
   XX=           -142.1283   YY=            -85.1209   ZZ=            -74.1414
   XY=              3.2874   XZ=             -0.0052   YZ=              0.0015

 Normal termination of Gaussian 09 at Tue Jun 15 11:13:19 2021.
