 Gaussian 09, Revision D.01,
 Gaussian 09:  ES64L-G09RevD.01 24-Apr-2013

 -------------------
 #N B3LYP/STO-3G OPT
 -------------------

 -----
 2Naph
 -----
 Symbolic Z-matrix:
 Charge = -1 Multiplicity = 1

 SCF Done:  E(RB3LYP) =  -562.472125477     A.U. after   32 cycles
 SCF Done:  E(RB3LYP) =  -562.502616481     A.U. after   19 cycles
 SCF Done:  E(RB3LYP) =  -562.506251250     A.U. after   17 cycles
 SCF Done:  E(RB3LYP) =  -562.506603331     A.U. after   18 cycles
 SCF Done:  E(RB3LYP) =  -562.506276087     A.U. after   21 cycles
 SCF Done:  E(RB3LYP) =  -562.506731085     A.U. after   13 cycles
 SCF Done:  E(RB3LYP) =  -562.506933408     A.U. after   19 cycles
 SCF Done:  E(RB3LYP) =  -562.506995403     A.U. after   20 cycles
 SCF Done:  E(RB3LYP) =  -562.507023130     A.U. after   18 cycles
 SCF Done:  E(RB3LYP) =  -562.507047441     A.U. after   15 cycles
 SCF Done:  E(RB3LYP) =  -562.507052086     A.U. after   14 cycles
 SCF Done:  E(RB3LYP) =  -562.507052900     A.U. after   13 cycles
 SCF Done:  E(RB3LYP) =  -562.507053063     A.U. after   13 cycles
 Optimization completed.
    -- Stationary point found.

                         Standard orientation:
 ---------------------------------------------------------------------
 Center     Atomic      Atomic             Coordinates (Angstroms)
 Number     Number       Type             X           Y           Z
 ---------------------------------------------------------------------
      1          7           0        4.532517   -0.835631    0.000118
      2          6           0        3.353970   -0.611012    0.000022
      3          6           0        0.995428   -1.399146   -0.000095
      4          6           0        1.917964   -0.337951   -0.000052
      5          6           0        1.449706    1.023390    0.000026
      6          6           0        0.071386    1.266545   -0.000022
      7          6           0       -0.931407    0.214940   -0.000066
      8          6           0       -0.417571   -1.159443   -0.000144
      9          6           0       -1.379533   -2.222202   -0.000042
     10          6           0       -2.731959   -1.887054    0.000149
     11          6           0       -3.164534   -0.522215    0.000086
     12          6           0       -2.342592    0.648822   -0.000116
     13          7           0       -0.693547    3.826024    0.000037
     14          6           0       -0.427030    2.654849    0.000001
     15          1           0        1.369792   -2.433644   -0.000017
     16          1           0        2.173895    1.847457    0.000081
     17          1           0       -1.040653   -3.265574   -0.000147
     18          1           0       -3.475525   -2.700891    0.000288
     19          1           0       -4.263259   -0.397239    0.000234
 ---------------------------------------------------------------------

 The electronic state is 1-A.
 Alpha  occ. eigenvalues --  -13.99983 -13.96612  -9.91257  -9.90440  -9.89521
 Alpha  occ. eigenvalues --   -9.88504  -9.88195  -9.87589  -9.86060  -9.83552
 Alpha  occ. eigenvalues --   -9.83172  -9.83034  -9.78647  -9.66112  -0.73445
 Alpha  occ. eigenvalues --   -0.70177  -0.67209  -0.61315  -0.58615  -0.54198
 Alpha  occ. eigenvalues --   -0.49909  -0.44815  -0.43378  -0.39291  -0.34259
 Alpha  occ. eigenvalues --   -0.31565  -0.30084  -0.28848  -0.24826  -0.23056
 Alpha  occ. eigenvalues --   -0.21165  -0.19920  -0.18516  -0.16876  -0.16628
 Alpha  occ. eigenvalues --   -0.16177  -0.14634  -0.14049  -0.12946  -0.11008
 Alpha  occ. eigenvalues --   -0.10320  -0.08906  -0.06084  -0.02822   0.02519
 Alpha  occ. eigenvalues --    0.11668
 Alpha virt. eigenvalues --    0.16832   0.19762   0.24871   0.27111   0.28526
 Alpha virt. eigenvalues --    0.29420   0.34198   0.37613   0.41934   0.46230
 Alpha virt. eigenvalues --    0.46305   0.51823   0.53097   0.53943   0.57793

 Mulliken charges:
               1
     1  N   -0.238065
     2  C    0.047763
     3  C   -0.075625
     4  C   -0.034894
     5  C   -0.089844
     6  C   -0.011414
     7  C   -0.033040
     8  C   -0.027215
     9  C   -0.123522
    10  C   -0.100758
    11  C   -0.142735
    12  C   -0.217276
    13  N   -0.242074
    14  C    0.070254
    15  H    0.063570
    16  H    0.069101
    17  H    0.036729
    18  H    0.034617
    19  H    0.014429
 Sum of Mulliken charges =  -1.00000

 Dipole moment (field-independent basis, Debye):
    X=              2.4357    Y=             -3.8183    Z=              0.0002  Tot=              4.5291
 Quadrupole moment (field-independent basis, Debye-Ang):
   XX=           -117.1916   YY=            -96.9826   ZZ=            -74.1651
   XY=             11.3211   XZ=             -0.0016   YZ=              0.0004

 Normal termination of Gaussian 09 at Tue Jun 15 11:15:46 2021.
