 Gaussian 09, Revision D.01,
 Gaussian 09:  ES64L-G09RevD.01 24-Apr-2013

 -------------------
 #N B3LYP/STO-3G OPT
 -------------------

 -----
 1Naph
 -----
 Symbolic Z-matrix:
 Charge = -1 Multiplicity = 1

 SCF Done:  E(RB3LYP) =  -562.474651933     A.U. after   41 cycles
 SCF Done:  E(RB3LYP) =  -562.503772665     A.U. after   17 cycles
 SCF Done:  E(RB3LYP) =  -562.507216799     A.U. after   16 cycles
 SCF Done:  E(RB3LYP) =  -562.507256906     A.U. after   14 cycles
 SCF Done:  E(RB3LYP) =  -562.507428933     A.U. after   17 cycles
 SCF Done:  E(RB3LYP) =  -562.507753610     A.U. after   14 cycles
 SCF Done:  E(RB3LYP) =  -562.507843192     A.U. after   15 cycles
 SCF Done:  E(RB3LYP) =  -562.507748142     A.U. after   15 cycles
 SCF Done:  E(RB3LYP) =  -562.507865072     A.U. after   14 cycles
 SCF Done:  E(RB3LYP) =  -562.507867568     A.U. after   11 cycles
 SCF Done:  E(RB3LYP) =  -562.507867790     A.U. after    9 cycles
 Optimization completed.
    -- Stationary point found.

                         Standard orientation:
 ---------------------------------------------------------------------
 Center     Atomic      Atomic             Coordinates (Angstroms)
 Number     Number       Type             X           Y           Z
 ---------------------------------------------------------------------
      1          7           0       -0.763061    3.809752   -0.053701
      2          6           0       -0.408040    2.663002   -0.030887
      3          6           0        0.046970    1.276163   -0.010873
      4          6           0        1.427997    1.021768    0.003794
      5          6           0        1.915829   -0.322368    0.029114
      6          6           0        0.991816   -1.399977    0.069926
      7          6           0       -0.412968   -1.191072    0.022611
      8          6           0       -0.925382    0.185253   -0.010413
      9          6           0       -2.333450    0.381335   -0.009392
     10          6           0       -3.178459   -0.736048    0.163371
     11          6           0       -2.763187   -2.087022   -0.067263
     12          6           0       -1.380950   -2.264374   -0.149626
     13          7           0        4.532726   -0.780996    0.015672
     14          6           0        3.350241   -0.572140    0.015965
     15          1           0        2.140104    1.857109   -0.006996
     16          1           0        1.375117   -2.429098    0.112983
     17          1           0       -2.719048    1.410248   -0.035545
     18          1           0       -4.220625   -0.527508    0.468643
     19          1           0       -0.945706   -3.239161   -0.430846
 ---------------------------------------------------------------------

 The electronic state is 1-A.
 Alpha  occ. eigenvalues --  -13.98837 -13.98605  -9.90250  -9.90133  -9.89481
 Alpha  occ. eigenvalues --   -9.89213  -9.88972  -9.87545  -9.86967  -9.86042
 Alpha  occ. eigenvalues --   -9.82786  -9.81504  -9.79893  -9.69564  -0.72599
 Alpha  occ. eigenvalues --   -0.72197  -0.67517  -0.61360  -0.59107  -0.53921
 Alpha  occ. eigenvalues --   -0.50826  -0.45177  -0.43524  -0.39369  -0.35226
 Alpha  occ. eigenvalues --   -0.32043  -0.29715  -0.28814  -0.24289  -0.23512
 Alpha  occ. eigenvalues --   -0.21355  -0.20490  -0.18874  -0.17505  -0.17326
 Alpha  occ. eigenvalues --   -0.15602  -0.15171  -0.14668  -0.13417  -0.12991
 Alpha  occ. eigenvalues --   -0.11629  -0.09327  -0.07212  -0.01698   0.00932
 Alpha  occ. eigenvalues --    0.09715
 Alpha virt. eigenvalues --    0.16371   0.19572   0.25226   0.26522   0.26828
 Alpha virt. eigenvalues --    0.28034   0.33713   0.37935   0.42207   0.44491
 Alpha virt. eigenvalues --    0.46263   0.51485   0.53580   0.57350   0.57659

 Mulliken charges:
               1
     1  N   -0.242473
     2  C    0.048310
     3  C   -0.035612
     4  C   -0.077598
     5  C   -0.044944
     6  C   -0.080148
     7  C   -0.020047
     8  C   -0.011754
     9  C   -0.119271
    10  C   -0.115341
    11  C   -0.185930
    12  C   -0.138496
    13  N   -0.245829
    14  C    0.041711
    15  H    0.069911
    16  H    0.064979
    17  H    0.045624
    18  H    0.026156
    19  H    0.020750
 Sum of Mulliken charges =  -1.00000

 Dipole moment (field-independent basis, Debye):
    X=              1.9309    Y=              1.1247    Z=              0.2255  Tot=              2.2459
 Quadrupole moment (field-independent basis, Debye-Ang):
   XX=           -119.6789   YY=           -103.2955   ZZ=            -74.4745
   XY=             -3.6577   XZ=             -0.7571   YZ=             -0.2986

 Normal termination of Gaussian 09 at Tue Jun 15 11:20:56 2021.
