 Gaussian 09, Revision D.01,
 Gaussian 09:  ES64L-G09RevD.01 24-Apr-2013

 -------------------
 #N B3LYP/STO-3G OPT
 -------------------

 -----
 2Naph
 -----
 Symbolic Z-matrix:
 Charge = -1 Multiplicity = 1

 SCF Done:  E(RB3LYP) =  -562.479978339     A.U. after   26 cycles
 SCF Done:  E(RB3LYP) =  -562.510770539     A.U. after   18 cycles
 SCF Done:  E(RB3LYP) =  -562.514278190     A.U. after   17 cycles
 SCF Done:  E(RB3LYP) =  -562.514234566     A.U. after   16 cycles
 SCF Done:  E(RB3LYP) =  -562.514391443     A.U. after   16 cycles
 SCF Done:  E(RB3LYP) =  -562.514465824     A.U. after   14 cycles
 SCF Done:  E(RB3LYP) =  -562.514467460     A.U. after   12 cycles
 SCF Done:  E(RB3LYP) =  -562.514471884     A.U. after   12 cycles
 SCF Done:  E(RB3LYP) =  -562.501222684     A.U. after   21 cycles
 SCF Done:  E(RB3LYP) =  -562.514474823     A.U. after   14 cycles
 SCF Done:  E(RB3LYP) =  -562.514562311     A.U. after   16 cycles
 SCF Done:  E(RB3LYP) =  -562.515384083     A.U. after   13 cycles
 SCF Done:  E(RB3LYP) =  -562.515479820     A.U. after   15 cycles
 SCF Done:  E(RB3LYP) =  -562.515503680     A.U. after   15 cycles
 SCF Done:  E(RB3LYP) =  -562.515581509     A.U. after   14 cycles
 SCF Done:  E(RB3LYP) =  -562.515743306     A.U. after   14 cycles
 SCF Done:  E(RB3LYP) =  -562.516022342     A.U. after   14 cycles
 SCF Done:  E(RB3LYP) =  -562.516109216     A.U. after   14 cycles
 SCF Done:  E(RB3LYP) =  -562.516120860     A.U. after   11 cycles
 SCF Done:  E(RB3LYP) =  -562.516122056     A.U. after   10 cycles
 Optimization completed.
    -- Stationary point found.

                         Standard orientation:
 ---------------------------------------------------------------------
 Center     Atomic      Atomic             Coordinates (Angstroms)
 Number     Number       Type             X           Y           Z
 ---------------------------------------------------------------------
      1          7           0       -4.400411    1.193650    0.009211
      2          6           0       -3.335495    0.640370    0.001873
      3          6           0       -0.843805    0.684869    0.020000
      4          6           0       -2.048047   -0.046911   -0.007943
      5          6           0       -2.008065   -1.485101   -0.043965
      6          6           0       -0.785140   -2.141334   -0.059867
      7          6           0        0.466230   -1.430209   -0.021128
      8          6           0        0.422338    0.026332    0.003829
      9          6           0        1.693390    0.739240   -0.015702
     10          6           0        2.887397   -0.013766   -0.186827
     11          6           0        2.992861   -1.423457    0.066289
     12          6           0        1.751218   -2.075512    0.145076
     13          7           0        1.781280    3.391387    0.061825
     14          6           0        1.713361    2.191223    0.042983
     15          1           0       -0.874298    1.783020    0.045598
     16          1           0       -2.951496   -2.045844   -0.052919
     17          1           0       -0.757807   -3.239603   -0.082768
     18          1           0        3.784084    0.558034   -0.488860
     19          1           0        1.695970   -3.145324    0.413982
 ---------------------------------------------------------------------

 The electronic state is 1-A.
 Alpha  occ. eigenvalues --  -13.99459 -13.95557  -9.90716  -9.89977  -9.88057
 Alpha  occ. eigenvalues --   -9.87969  -9.87391  -9.86968  -9.86466  -9.86456
 Alpha  occ. eigenvalues --   -9.86280  -9.82436  -9.80359  -9.69582  -0.72996
 Alpha  occ. eigenvalues --   -0.69845  -0.67585  -0.61809  -0.58468  -0.54123
 Alpha  occ. eigenvalues --   -0.52122  -0.44111  -0.42779  -0.41047  -0.35934
 Alpha  occ. eigenvalues --   -0.31569  -0.29634  -0.27601  -0.25471  -0.24707
 Alpha  occ. eigenvalues --   -0.21182  -0.20970  -0.18991  -0.17475  -0.17026
 Alpha  occ. eigenvalues --   -0.15265  -0.14129  -0.14052  -0.13552  -0.11560
 Alpha  occ. eigenvalues --   -0.11059  -0.08971  -0.07614  -0.02183   0.00822
 Alpha  occ. eigenvalues --    0.09492
 Alpha virt. eigenvalues --    0.16960   0.20462   0.23936   0.25392   0.28250
 Alpha virt. eigenvalues --    0.29621   0.35013   0.37230   0.42660   0.44639
 Alpha virt. eigenvalues --    0.47570   0.50927   0.53578   0.56501   0.56951

 Mulliken charges:
               1
     1  N   -0.240261
     2  C    0.046288
     3  C   -0.080012
     4  C   -0.037980
     5  C   -0.093856
     6  C   -0.094702
     7  C   -0.015630
     8  C   -0.013590
     9  C   -0.055326
    10  C   -0.104647
    11  C   -0.189567
    12  C   -0.137189
    13  N   -0.263820
    14  C    0.031063
    15  H    0.076216
    16  H    0.059712
    17  H    0.057376
    18  H    0.034543
    19  H    0.021381
 Sum of Mulliken charges =  -1.00000

 Dipole moment (field-independent basis, Debye):
    X=             -3.0873    Y=             -2.2555    Z=             -0.2823  Tot=              3.8338
 Quadrupole moment (field-independent basis, Debye-Ang):
   XX=           -122.2186   YY=            -98.0592   ZZ=            -74.4031
   XY=              9.1841   XZ=             -0.9072   YZ=              0.1128

 Normal termination of Gaussian 09 at Tue Jun 15 11:22:29 2021.
