 Gaussian 09, Revision D.01,
 Gaussian 09:  ES64L-G09RevD.01 24-Apr-2013

 -------------------
 #N B3LYP/STO-3G OPT
 -------------------

 -----
 1Naph
 -----
 Symbolic Z-matrix:
 Charge = -1 Multiplicity = 1

 SCF Done:  E(RB3LYP) =  -562.491691301     A.U. after   24 cycles
 SCF Done:  E(RB3LYP) =  -562.523490495     A.U. after   16 cycles
 SCF Done:  E(RB3LYP) =  -562.527465566     A.U. after   15 cycles
 SCF Done:  E(RB3LYP) =  -562.527323486     A.U. after   16 cycles
 SCF Done:  E(RB3LYP) =  -562.527574099     A.U. after    9 cycles
 SCF Done:  E(RB3LYP) =  -562.527620931     A.U. after   14 cycles
 SCF Done:  E(RB3LYP) =  -562.527705768     A.U. after   14 cycles
 SCF Done:  E(RB3LYP) =  -562.527693606     A.U. after   12 cycles
 SCF Done:  E(RB3LYP) =  -562.527709069     A.U. after   11 cycles
 Optimization completed.
    -- Stationary point found.

                         Standard orientation:
 ---------------------------------------------------------------------
 Center     Atomic      Atomic             Coordinates (Angstroms)
 Number     Number       Type             X           Y           Z
 ---------------------------------------------------------------------
      1          7           0       -0.538412    3.839446   -0.000433
      2          6           0       -0.228990    2.679272    0.000255
      3          6           0        0.157366    1.276845    0.000004
      4          6           0        1.512065    0.911663   -0.000276
      5          6           0        1.897578   -0.470104   -0.000489
      6          6           0        1.034293   -1.628578   -0.000336
      7          6           0       -0.383652   -1.156258    0.000170
      8          6           0       -0.847803    0.221256    0.000170
      9          6           0       -2.254703    0.512251    0.000479
     10          6           0       -3.195274   -0.510782    0.000244
     11          6           0       -2.770708   -1.872422   -0.000127
     12          6           0       -1.410952   -2.169873   -0.000176
     13          7           0        4.535941   -0.923282    0.000302
     14          6           0        3.355025   -0.712625    0.000383
     15          1           0        2.275114    1.706131   -0.000182
     16          1           0       -2.578607    1.562443    0.000481
     17          1           0       -4.267945   -0.273935    0.000145
     18          1           0       -3.520657   -2.674137   -0.000499
     19          1           0       -1.076083   -3.217527   -0.000848
 ---------------------------------------------------------------------

 The electronic state is 1-A.
 Alpha  occ. eigenvalues --  -13.97105 -13.93817  -9.87984  -9.87690  -9.87324
 Alpha  occ. eigenvalues --   -9.87138  -9.86715  -9.86584  -9.86428  -9.85898
 Alpha  occ. eigenvalues --   -9.84655  -9.83538  -9.83515  -9.69326  -0.71154
 Alpha  occ. eigenvalues --   -0.68314  -0.66698  -0.62376  -0.56951  -0.54562
 Alpha  occ. eigenvalues --   -0.52590  -0.43203  -0.42283  -0.40794  -0.35591
 Alpha  occ. eigenvalues --   -0.32451  -0.30450  -0.25589  -0.24957  -0.23350
 Alpha  occ. eigenvalues --   -0.22316  -0.20596  -0.19651  -0.16108  -0.15753
 Alpha  occ. eigenvalues --   -0.13978  -0.13963  -0.13769  -0.12278  -0.10398
 Alpha  occ. eigenvalues --   -0.09362  -0.08525  -0.06520  -0.03457   0.01404
 Alpha  occ. eigenvalues --    0.09453
 Alpha virt. eigenvalues --    0.18856   0.21253   0.24076   0.26984   0.29739
 Alpha virt. eigenvalues --    0.30660   0.35106   0.37987   0.44772   0.45819
 Alpha virt. eigenvalues --    0.47972   0.50057   0.52409   0.55994   0.56228

 Mulliken charges:
               1
     1  N   -0.256213
     2  C    0.039635
     3  C   -0.055591
     4  C   -0.072737
     5  C   -0.083337
     6  C   -0.179373
     7  C   -0.047940
     8  C   -0.012782
     9  C   -0.097809
    10  C   -0.096558
    11  C   -0.109606
    12  C   -0.078667
    13  N   -0.277125
    14  C    0.038017
    15  H    0.061438
    16  H    0.062399
    17  H    0.051505
    18  H    0.048588
    19  H    0.066157
 Sum of Mulliken charges =  -1.00000

 Dipole moment (field-independent basis, Debye):
    X=             -5.5832    Y=              0.3886    Z=              0.0007  Tot=              5.5967
 Quadrupole moment (field-independent basis, Debye-Ang):
   XX=           -109.4100   YY=           -102.6034   ZZ=            -74.1463
   XY=             12.7017   XZ=             -0.0005   YZ=              0.0038

 Normal termination of Gaussian 09 at Tue Jun 15 11:17:41 2021.
