 Gaussian 09, Revision D.01,
 Gaussian 09:  ES64L-G09RevD.01 24-Apr-2013

 -------------------
 #N B3LYP/STO-3G OPT
 -------------------

 -----
 1Naph
 -----
 Symbolic Z-matrix:
 Charge = -1 Multiplicity = 1

 SCF Done:  E(RB3LYP) =  -562.477035615     A.U. after   26 cycles
 SCF Done:  E(RB3LYP) =  -562.510400849     A.U. after   18 cycles
 SCF Done:  E(RB3LYP) =  -562.514005500     A.U. after   14 cycles
 SCF Done:  E(RB3LYP) =  -562.512933365     A.U. after   17 cycles
 SCF Done:  E(RB3LYP) =  -562.514122937     A.U. after   11 cycles
 SCF Done:  E(RB3LYP) =  -562.514220176     A.U. after   11 cycles
 SCF Done:  E(RB3LYP) =  -562.514231771     A.U. after   10 cycles
 SCF Done:  E(RB3LYP) =  -562.514232385     A.U. after    9 cycles
 SCF Done:  E(RB3LYP) =  -562.514232460     A.U. after    8 cycles
 Optimization completed.
    -- Stationary point found.

                         Standard orientation:
 ---------------------------------------------------------------------
 Center     Atomic      Atomic             Coordinates (Angstroms)
 Number     Number       Type             X           Y           Z
 ---------------------------------------------------------------------
      1          7           0        1.658630    3.425419   -0.000232
      2          6           0        1.640424    2.225222   -0.000182
      3          6           0        1.632536    0.762655    0.000016
      4          6           0        2.858389    0.080439    0.000187
      5          6           0        2.885470   -1.341116    0.000364
      6          6           0        1.689038   -2.057954    0.000350
      7          6           0        0.386166   -1.439037    0.000160
      8          6           0        0.370162    0.028269    0.000022
      9          6           0       -0.891360    0.688915   -0.000087
     10          6           0       -2.059251   -0.099416   -0.000133
     11          6           0       -1.983377   -1.540769   -0.000093
     12          6           0       -0.798269   -2.333918    0.000107
     13          7           0       -4.462576    1.057908   -0.000304
     14          6           0       -3.367102    0.566871   -0.000219
     15          1           0        3.797175    0.650740    0.000176
     16          1           0        3.852616   -1.859554    0.000501
     17          1           0        1.714255   -3.158254    0.000467
     18          1           0       -0.945304    1.783949   -0.000132
     19          1           0       -2.968071   -2.041135   -0.000206
 ---------------------------------------------------------------------

 The electronic state is 1-A.
 Alpha  occ. eigenvalues --  -13.98919 -13.96852  -9.90214  -9.89397  -9.88559
 Alpha  occ. eigenvalues --   -9.87536  -9.87357  -9.86761  -9.86667  -9.86393
 Alpha  occ. eigenvalues --   -9.84252  -9.83038  -9.79589  -9.66685  -0.72462
 Alpha  occ. eigenvalues --   -0.70648  -0.66907  -0.61850  -0.57923  -0.54669
 Alpha  occ. eigenvalues --   -0.50203  -0.45422  -0.42024  -0.40042  -0.34092
 Alpha  occ. eigenvalues --   -0.31580  -0.30964  -0.27874  -0.24494  -0.23451
 Alpha  occ. eigenvalues --   -0.20967  -0.20389  -0.19194  -0.16787  -0.16546
 Alpha  occ. eigenvalues --   -0.14556  -0.14451  -0.13938  -0.13539  -0.11801
 Alpha  occ. eigenvalues --   -0.10248  -0.09584  -0.06327  -0.02814   0.02065
 Alpha  occ. eigenvalues --    0.11146
 Alpha virt. eigenvalues --    0.16630   0.21255   0.25776   0.25923   0.27931
 Alpha virt. eigenvalues --    0.29048   0.34382   0.37778   0.43207   0.46013
 Alpha virt. eigenvalues --    0.46044   0.49608   0.53293   0.56687   0.57940

 Mulliken charges:
               1
     1  N   -0.240155
     2  C    0.047690
     3  C   -0.032367
     4  C   -0.083620
     5  C   -0.112015
     6  C   -0.072434
     7  C   -0.044624
     8  C   -0.017037
     9  C   -0.110988
    10  C   -0.032464
    11  C   -0.136800
    12  C   -0.215358
    13  N   -0.253721
    14  C    0.041388
    15  H    0.060967
    16  H    0.050947
    17  H    0.067497
    18  H    0.058985
    19  H    0.024108
 Sum of Mulliken charges =  -1.00000

 Dipole moment (field-independent basis, Debye):
    X=              4.9776    Y=              0.2543    Z=              0.0003  Tot=              4.9841
 Quadrupole moment (field-independent basis, Debye-Ang):
   XX=           -105.9705   YY=           -105.8476   ZZ=            -74.1670
   XY=             -3.8823   XZ=             -0.0014   YZ=              0.0023

 Normal termination of Gaussian 09 at Tue Jun 15 11:17:06 2021.
