 Gaussian 09, Revision D.01,
 Gaussian 09:  ES64L-G09RevD.01 24-Apr-2013

 -------------------
 #N B3LYP/STO-3G OPT
 -------------------

 -----
 1Naph
 -----
 Symbolic Z-matrix:
 Charge = -1 Multiplicity = 1

 SCF Done:  E(RB3LYP) =  -562.472417699     A.U. after   29 cycles
 SCF Done:  E(RB3LYP) =  -562.502615025     A.U. after   19 cycles
 SCF Done:  E(RB3LYP) =  -562.506202246     A.U. after   17 cycles
 SCF Done:  E(RB3LYP) =  -562.506190946     A.U. after   18 cycles
 SCF Done:  E(RB3LYP) =  -562.506446029     A.U. after   12 cycles
 SCF Done:  E(RB3LYP) =  -562.506740425     A.U. after   19 cycles
 SCF Done:  E(RB3LYP) =  -562.506863888     A.U. after   18 cycles
 SCF Done:  E(RB3LYP) =  -562.506740561     A.U. after   21 cycles
 SCF Done:  E(RB3LYP) =  -562.506942130     A.U. after   13 cycles
 SCF Done:  E(RB3LYP) =  -562.507027685     A.U. after   18 cycles
 SCF Done:  E(RB3LYP) =  -562.507049714     A.U. after   19 cycles
 SCF Done:  E(RB3LYP) =  -562.507052277     A.U. after   14 cycles
 SCF Done:  E(RB3LYP) =  -562.507053021     A.U. after   13 cycles
 Optimization completed.
    -- Stationary point found.

                         Standard orientation:
 ---------------------------------------------------------------------
 Center     Atomic      Atomic             Coordinates (Angstroms)
 Number     Number       Type             X           Y           Z
 ---------------------------------------------------------------------
      1          7           0       -0.693517    3.826005    0.000026
      2          6           0       -0.427252    2.654760   -0.000029
      3          6           0        0.071358    1.266529   -0.000022
      4          6           0        1.449701    1.023403    0.000030
      5          6           0        1.917926   -0.337940    0.000040
      6          6           0        0.995479   -1.399191    0.000040
      7          6           0       -0.417585   -1.159535    0.000186
      8          6           0       -0.931316    0.214863    0.000046
      9          6           0       -2.342492    0.648834    0.000071
     10          6           0       -3.164510   -0.522176   -0.000152
     11          6           0       -2.731982   -1.886962   -0.000115
     12          6           0       -1.379549   -2.222204    0.000137
     13          7           0        4.532559   -0.835450   -0.000133
     14          6           0        3.353959   -0.611070   -0.000034
     15          1           0        2.173897    1.847464    0.000035
     16          1           0        1.369919   -2.433666   -0.000123
     17          1           0       -4.263214   -0.397092   -0.000395
     18          1           0       -3.475518   -2.700842   -0.000228
     19          1           0       -1.040803   -3.265618    0.000269
 ---------------------------------------------------------------------

 The electronic state is 1-A.
 Alpha  occ. eigenvalues --  -13.99983 -13.96610  -9.91257  -9.90440  -9.89520
 Alpha  occ. eigenvalues --   -9.88504  -9.88195  -9.87588  -9.86060  -9.83553
 Alpha  occ. eigenvalues --   -9.83171  -9.83034  -9.78647  -9.66113  -0.73445
 Alpha  occ. eigenvalues --   -0.70175  -0.67209  -0.61315  -0.58615  -0.54198
 Alpha  occ. eigenvalues --   -0.49909  -0.44815  -0.43378  -0.39291  -0.34259
 Alpha  occ. eigenvalues --   -0.31565  -0.30084  -0.28848  -0.24826  -0.23055
 Alpha  occ. eigenvalues --   -0.21164  -0.19919  -0.18517  -0.16876  -0.16629
 Alpha  occ. eigenvalues --   -0.16177  -0.14634  -0.14048  -0.12946  -0.11006
 Alpha  occ. eigenvalues --   -0.10320  -0.08905  -0.06083  -0.02823   0.02519
 Alpha  occ. eigenvalues --    0.11667
 Alpha virt. eigenvalues --    0.16832   0.19762   0.24871   0.27111   0.28526
 Alpha virt. eigenvalues --    0.29420   0.34198   0.37613   0.41933   0.46230
 Alpha virt. eigenvalues --    0.46306   0.51823   0.53096   0.53944   0.57794

 Mulliken charges:
               1
     1  N   -0.242091
     2  C    0.070252
     3  C   -0.011404
     4  C   -0.089854
     5  C   -0.034882
     6  C   -0.075627
     7  C   -0.027216
     8  C   -0.033053
     9  C   -0.217243
    10  C   -0.142749
    11  C   -0.100748
    12  C   -0.123532
    13  N   -0.238064
    14  C    0.047761
    15  H    0.069103
    16  H    0.063567
    17  H    0.014437
    18  H    0.034613
    19  H    0.036731
 Sum of Mulliken charges =  -1.00000

 Dipole moment (field-independent basis, Debye):
    X=              2.4350    Y=             -3.8188    Z=             -0.0003  Tot=              4.5291
 Quadrupole moment (field-independent basis, Debye-Ang):
   XX=           -117.1896   YY=            -96.9836   ZZ=            -74.1651
   XY=             11.3185   XZ=              0.0015   YZ=             -0.0007

 Normal termination of Gaussian 09 at Tue Jun 15 11:22:11 2021.
