 Gaussian 09, Revision D.01,
 Gaussian 09:  ES64L-G09RevD.01 24-Apr-2013

 -------------------
 #N B3LYP/STO-3G OPT
 -------------------

 -----
 2Naph
 -----
 Symbolic Z-matrix:
 Charge = -1 Multiplicity = 1

 SCF Done:  E(RB3LYP) =  -562.474994456     A.U. after   93 cycles
 SCF Done:  E(RB3LYP) =  -562.503813919     A.U. after   17 cycles
 SCF Done:  E(RB3LYP) =  -562.507207512     A.U. after   16 cycles
 SCF Done:  E(RB3LYP) =  -562.507021575     A.U. after   17 cycles
 SCF Done:  E(RB3LYP) =  -562.507380875     A.U. after   11 cycles
 SCF Done:  E(RB3LYP) =  -562.507623179     A.U. after   16 cycles
 SCF Done:  E(RB3LYP) =  -562.507781081     A.U. after   14 cycles
 SCF Done:  E(RB3LYP) =  -562.507851668     A.U. after   15 cycles
 SCF Done:  E(RB3LYP) =  -562.507847150     A.U. after   14 cycles
 SCF Done:  E(RB3LYP) =  -562.507866852     A.U. after   13 cycles
 SCF Done:  E(RB3LYP) =  -562.507867755     A.U. after   10 cycles
 Optimization completed.
    -- Stationary point found.

                         Standard orientation:
 ---------------------------------------------------------------------
 Center     Atomic      Atomic             Coordinates (Angstroms)
 Number     Number       Type             X           Y           Z
 ---------------------------------------------------------------------
      1          7           0        4.532667   -0.781147   -0.015636
      2          6           0        3.350204   -0.572188   -0.016124
      3          6           0        0.991776   -1.400004   -0.069900
      4          6           0        1.915804   -0.322359   -0.029235
      5          6           0        1.427984    1.021740   -0.003915
      6          6           0        0.046915    1.276135    0.010681
      7          6           0       -0.925372    0.185231    0.010286
      8          6           0       -0.412952   -1.191107   -0.022485
      9          6           0       -1.381056   -2.264366    0.149968
     10          6           0       -2.763165   -2.086854    0.067363
     11          6           0       -3.178490   -0.735985   -0.163675
     12          6           0       -2.333476    0.381351    0.009186
     13          7           0       -0.762781    3.809817    0.054109
     14          6           0       -0.407988    2.663010    0.030920
     15          1           0        1.375146   -2.429107   -0.112678
     16          1           0        2.140034    1.857125    0.007003
     17          1           0       -0.945936   -3.239064    0.431711
     18          1           0       -4.220633   -0.527576   -0.469079
     19          1           0       -2.718926    1.410319    0.035320
 ---------------------------------------------------------------------

 The electronic state is 1-A.
 Alpha  occ. eigenvalues --  -13.98836 -13.98604  -9.90249  -9.90132  -9.89480
 Alpha  occ. eigenvalues --   -9.89212  -9.88972  -9.87544  -9.86967  -9.86042
 Alpha  occ. eigenvalues --   -9.82785  -9.81505  -9.79893  -9.69567  -0.72598
 Alpha  occ. eigenvalues --   -0.72196  -0.67517  -0.61360  -0.59107  -0.53921
 Alpha  occ. eigenvalues --   -0.50826  -0.45176  -0.43524  -0.39369  -0.35227
 Alpha  occ. eigenvalues --   -0.32043  -0.29715  -0.28813  -0.24290  -0.23512
 Alpha  occ. eigenvalues --   -0.21354  -0.20491  -0.18873  -0.17504  -0.17325
 Alpha  occ. eigenvalues --   -0.15602  -0.15171  -0.14668  -0.13417  -0.12991
 Alpha  occ. eigenvalues --   -0.11631  -0.09327  -0.07212  -0.01698   0.00932
 Alpha  occ. eigenvalues --    0.09714
 Alpha virt. eigenvalues --    0.16372   0.19572   0.25227   0.26522   0.26828
 Alpha virt. eigenvalues --    0.28034   0.33713   0.37935   0.42207   0.44489
 Alpha virt. eigenvalues --    0.46265   0.51488   0.53581   0.57350   0.57659

 Mulliken charges:
               1
     1  N   -0.245835
     2  C    0.041709
     3  C   -0.080160
     4  C   -0.044947
     5  C   -0.077594
     6  C   -0.035618
     7  C   -0.011744
     8  C   -0.020039
     9  C   -0.138507
    10  C   -0.185894
    11  C   -0.115346
    12  C   -0.119274
    13  N   -0.242482
    14  C    0.048307
    15  H    0.064977
    16  H    0.069911
    17  H    0.020752
    18  H    0.026167
    19  H    0.045617
 Sum of Mulliken charges =  -1.00000

 Dipole moment (field-independent basis, Debye):
    X=              1.9297    Y=              1.1237    Z=             -0.2262  Tot=              2.2445
 Quadrupole moment (field-independent basis, Debye-Ang):
   XX=           -119.6756   YY=           -103.2942   ZZ=            -74.4749
   XY=             -3.6543   XZ=              0.7578   YZ=              0.2964

 Normal termination of Gaussian 09 at Tue Jun 15 11:14:56 2021.
