 Gaussian 09, Revision D.01,
 Gaussian 09:  ES64L-G09RevD.01 24-Apr-2013

 -------------------
 #N B3LYP/STO-3G OPT
 -------------------

 -----
 2Naph
 -----
 Symbolic Z-matrix:
 Charge = -1 Multiplicity = 1

 SCF Done:  E(RB3LYP) =  -562.484741473     A.U. after   35 cycles
 SCF Done:  E(RB3LYP) =  -562.515253775     A.U. after   20 cycles
 SCF Done:  E(RB3LYP) =  -562.519251181     A.U. after   19 cycles
 SCF Done:  E(RB3LYP) =  -562.519379533     A.U. after   13 cycles
 SCF Done:  E(RB3LYP) =  -562.519109151     A.U. after   17 cycles
 SCF Done:  E(RB3LYP) =  -562.519418849     A.U. after    9 cycles
 SCF Done:  E(RB3LYP) =  -562.519432577     A.U. after   13 cycles
 SCF Done:  E(RB3LYP) =  -562.519434155     A.U. after   13 cycles
 SCF Done:  E(RB3LYP) =  -562.519434507     A.U. after   12 cycles
 SCF Done:  E(RB3LYP) =  -562.519434447     A.U. after   11 cycles
 Optimization completed.
    -- Stationary point found.

                         Standard orientation:
 ---------------------------------------------------------------------
 Center     Atomic      Atomic             Coordinates (Angstroms)
 Number     Number       Type             X           Y           Z
 ---------------------------------------------------------------------
      1          7           0       -4.427172    1.036383    0.001426
      2          6           0       -3.343189    0.522221   -0.000212
      3          6           0       -0.856379    0.658104    0.000727
      4          6           0       -2.027982   -0.117377   -0.000108
      5          6           0       -1.941795   -1.556718   -0.000905
      6          6           0       -0.696263   -2.165367   -0.001009
      7          6           0        0.517022   -1.396720   -0.000378
      8          6           0        0.444607    0.052678    0.000443
      9          6           0        1.701354    0.800358    0.000331
     10          6           0        3.038110    0.282844    0.000708
     11          6           0        2.964595   -1.196712    0.001258
     12          6           0        1.828011   -1.994227   -0.000241
     13          7           0        1.491044    3.469075   -0.001376
     14          6           0        1.564922    2.271142   -0.000698
     15          1           0       -0.928780    1.755176    0.001422
     16          1           0       -2.864696   -2.149614   -0.001458
     17          1           0       -0.623392   -3.261946   -0.001594
     18          1           0        3.924120   -1.749629    0.002587
     19          1           0        1.887570   -3.093549   -0.000802
 ---------------------------------------------------------------------

 The electronic state is 1-A.
 Alpha  occ. eigenvalues --  -14.00132 -13.93017  -9.91508  -9.90522  -9.88450
 Alpha  occ. eigenvalues --   -9.88438  -9.88092  -9.87192  -9.86997  -9.84406
 Alpha  occ. eigenvalues --   -9.83898  -9.82543  -9.81786  -9.67621  -0.73499
 Alpha  occ. eigenvalues --   -0.68388  -0.67343  -0.61906  -0.58776  -0.54454
 Alpha  occ. eigenvalues --   -0.51885  -0.44974  -0.42688  -0.40347  -0.35626
 Alpha  occ. eigenvalues --   -0.33308  -0.28946  -0.27696  -0.25289  -0.24725
 Alpha  occ. eigenvalues --   -0.22155  -0.21330  -0.18853  -0.17187  -0.16958
 Alpha  occ. eigenvalues --   -0.16127  -0.14418  -0.13113  -0.12886  -0.10217
 Alpha  occ. eigenvalues --   -0.09965  -0.07748  -0.07745  -0.02520   0.01256
 Alpha  occ. eigenvalues --    0.10765
 Alpha virt. eigenvalues --    0.16540   0.20916   0.24945   0.24967   0.29633
 Alpha virt. eigenvalues --    0.31149   0.34459   0.37566   0.42087   0.46028
 Alpha virt. eigenvalues --    0.48140   0.50154   0.52921   0.54712   0.56740

 Mulliken charges:
               1
     1  N   -0.234759
     2  C    0.049341
     3  C   -0.075476
     4  C   -0.032964
     5  C   -0.095519
     6  C   -0.090470
     7  C   -0.022191
     8  C   -0.014210
     9  C   -0.080924
    10  C   -0.202589
    11  C   -0.114091
    12  C   -0.108014
    13  N   -0.280045
    14  C    0.035794
    15  H    0.082562
    16  H    0.061008
    17  H    0.057794
    18  H    0.025844
    19  H    0.038911
 Sum of Mulliken charges =  -1.00000

 Dipole moment (field-independent basis, Debye):
    X=             -3.7376    Y=             -5.7901    Z=             -0.0011  Tot=              6.8917
 Quadrupole moment (field-independent basis, Debye-Ang):
   XX=           -124.0038   YY=            -94.4949   ZZ=            -74.1484
   XY=             -3.0895   XZ=              0.0103   YZ=              0.0081

 Normal termination of Gaussian 09 at Tue Jun 15 11:14:19 2021.
