 Gaussian 09, Revision D.01,
 Gaussian 09:  ES64L-G09RevD.01 24-Apr-2013

 -------------------
 #N B3LYP/STO-3G OPT
 -------------------

 -----
 2Naph
 -----
 Symbolic Z-matrix:
 Charge = -1 Multiplicity = 1

 SCF Done:  E(RB3LYP) =  -562.444818170     A.U. after   27 cycles
 SCF Done:  E(RB3LYP) =  -562.490079570     A.U. after   19 cycles
 SCF Done:  E(RB3LYP) =  -562.504310830     A.U. after   20 cycles
 SCF Done:  E(RB3LYP) =  -562.503589017     A.U. after   19 cycles
 SCF Done:  E(RB3LYP) =  -562.504792582     A.U. after   12 cycles
 SCF Done:  E(RB3LYP) =  -562.504411215     A.U. after   19 cycles
 SCF Done:  E(RB3LYP) =  -562.505150173     A.U. after   12 cycles
 SCF Done:  E(RB3LYP) =  -562.505215173     A.U. after   15 cycles
 SCF Done:  E(RB3LYP) =  -562.505111408     A.U. after   16 cycles
 SCF Done:  E(RB3LYP) =  -562.505233074     A.U. after   14 cycles
 SCF Done:  E(RB3LYP) =  -562.505238238     A.U. after   11 cycles
 SCF Done:  E(RB3LYP) =  -562.505240834     A.U. after   12 cycles
 SCF Done:  E(RB3LYP) =  -562.505240977     A.U. after   10 cycles
 Optimization completed.
    -- Stationary point found.

                         Standard orientation:
 ---------------------------------------------------------------------
 Center     Atomic      Atomic             Coordinates (Angstroms)
 Number     Number       Type             X           Y           Z
 ---------------------------------------------------------------------
      1          7           0        4.211806   -0.484157   -0.012193
      2          6           0        3.012789   -0.553213   -0.003533
      3          6           0        0.720310    0.475568    0.000046
      4          6           0        1.563005   -0.680078    0.007204
      5          6           0        0.969573   -1.984669    0.022851
      6          6           0       -0.412267   -2.130519    0.058969
      7          6           0       -1.305829   -1.000924    0.041172
      8          6           0       -0.720046    0.340297    0.013286
      9          6           0       -1.621360    1.455905    0.020991
     10          6           0       -2.998489    1.230059    0.103930
     11          6           0       -3.653519   -0.049143   -0.116385
     12          6           0       -2.734271   -1.122109   -0.085406
     13          7           0        1.823267    2.894729   -0.046891
     14          6           0        1.326769    1.801131   -0.021234
     15          1           0        1.628622   -2.862408    0.016857
     16          1           0       -0.849363   -3.138269    0.088456
     17          1           0       -1.192537    2.468191    0.009597
     18          1           0       -3.625936    2.121809    0.291296
     19          1           0       -3.086295   -2.157161   -0.243955
 ---------------------------------------------------------------------

 The electronic state is 1-A.
 Alpha  occ. eigenvalues --  -13.99304 -13.98874  -9.91105  -9.90900  -9.89795
 Alpha  occ. eigenvalues --   -9.89319  -9.88116  -9.87105  -9.86909  -9.86161
 Alpha  occ. eigenvalues --   -9.83018  -9.81262  -9.79426  -9.68505  -0.72920
 Alpha  occ. eigenvalues --   -0.72001  -0.67606  -0.61357  -0.59088  -0.53736
 Alpha  occ. eigenvalues --   -0.51102  -0.45729  -0.42116  -0.40218  -0.34431
 Alpha  occ. eigenvalues --   -0.32977  -0.30168  -0.28002  -0.24851  -0.22759
 Alpha  occ. eigenvalues --   -0.21804  -0.19988  -0.18647  -0.17811  -0.16463
 Alpha  occ. eigenvalues --   -0.15664  -0.15182  -0.14823  -0.13653  -0.12962
 Alpha  occ. eigenvalues --   -0.11006  -0.09577  -0.06949  -0.01878   0.01203
 Alpha  occ. eigenvalues --    0.10479
 Alpha virt. eigenvalues --    0.15319   0.20667   0.25200   0.26274   0.26855
 Alpha virt. eigenvalues --    0.29781   0.31318   0.38539   0.41576   0.45158
 Alpha virt. eigenvalues --    0.46888   0.50160   0.54678   0.56861   0.58312

 Mulliken charges:
               1
     1  N   -0.234967
     2  C    0.046025
     3  C   -0.022249
     4  C   -0.030479
     5  C   -0.093150
     6  C   -0.093243
     7  C   -0.016380
     8  C   -0.014511
     9  C   -0.116334
    10  C   -0.116426
    11  C   -0.194697
    12  C   -0.143666
    13  N   -0.231489
    14  C    0.051076
    15  H    0.061519
    16  H    0.057945
    17  H    0.047486
    18  H    0.025720
    19  H    0.017821
 Sum of Mulliken charges =  -1.00000

 Dipole moment (field-independent basis, Debye):
    X=              1.9544    Y=             -2.4553    Z=              0.3557  Tot=              3.1583
 Quadrupole moment (field-independent basis, Debye-Ang):
   XX=           -133.8719   YY=            -85.2986   ZZ=            -74.4571
   XY=             -5.7443   XZ=             -1.3080   YZ=              0.0819

 Normal termination of Gaussian 09 at Tue Jun 15 11:15:28 2021.
