 Gaussian 09, Revision D.01,
 Gaussian 09:  ES64L-G09RevD.01 24-Apr-2013

 -------------------
 #N B3LYP/STO-3G OPT
 -------------------

 -----
 2Naph
 -----
 Symbolic Z-matrix:
 Charge = -1 Multiplicity = 1

 SCF Done:  E(RB3LYP) =  -562.473478844     A.U. after   23 cycles
 SCF Done:  E(RB3LYP) =  -562.508699253     A.U. after   18 cycles
 SCF Done:  E(RB3LYP) =  -562.519377238     A.U. after   20 cycles
 SCF Done:  E(RB3LYP) =  -562.521636017     A.U. after   19 cycles
 SCF Done:  E(RB3LYP) =  -562.521179608     A.U. after   19 cycles
 SCF Done:  E(RB3LYP) =  -562.521955671     A.U. after   11 cycles
 SCF Done:  E(RB3LYP) =  -562.522421699     A.U. after   16 cycles
 SCF Done:  E(RB3LYP) =  -562.522499613     A.U. after   14 cycles
 SCF Done:  E(RB3LYP) =  -562.522506487     A.U. after   12 cycles
 SCF Done:  E(RB3LYP) =  -562.522506875     A.U. after   12 cycles
 SCF Done:  E(RB3LYP) =  -562.522506872     A.U. after   12 cycles
 SCF Done:  E(RB3LYP) =  -562.522507151     A.U. after   11 cycles
 Optimization completed.
    -- Stationary point found.

                         Standard orientation:
 ---------------------------------------------------------------------
 Center     Atomic      Atomic             Coordinates (Angstroms)
 Number     Number       Type             X           Y           Z
 ---------------------------------------------------------------------
      1          7           0       -4.933930   -0.274354   -0.000242
      2          6           0       -3.735752   -0.212766   -0.000049
      3          6           0       -1.676066    1.188105    0.000219
      4          6           0       -2.261079   -0.125656    0.000031
      5          6           0       -1.572026   -1.394586    0.000057
      6          6           0       -0.185779   -1.449645    0.000098
      7          6           0        0.555312   -0.221293    0.000138
      8          6           0       -0.191365    1.036518    0.000129
      9          6           0        0.590724    2.244055    0.000027
     10          6           0        1.988053    2.257748   -0.000110
     11          6           0        2.703870    1.033249   -0.000105
     12          6           0        2.010719   -0.190067    0.000036
     13          7           0        3.417879   -2.450934   -0.000081
     14          6           0        2.778651   -1.435066   -0.000037
     15          1           0       -2.147779   -2.333729   -0.000023
     16          1           0        0.348699   -2.407001    0.000154
     17          1           0        0.036385    3.194782    0.000002
     18          1           0        2.541137    3.205427   -0.000203
     19          1           0        3.802341    1.033967   -0.000275
 ---------------------------------------------------------------------

 The electronic state is 1-A.
 Alpha  occ. eigenvalues --  -13.99137 -13.93048  -9.90389  -9.89648  -9.88818
 Alpha  occ. eigenvalues --   -9.87071  -9.87008  -9.86715  -9.85019  -9.83963
 Alpha  occ. eigenvalues --   -9.83705  -9.83435  -9.82463  -9.68096  -0.72709
 Alpha  occ. eigenvalues --   -0.67733  -0.67112  -0.61658  -0.58187  -0.54423
 Alpha  occ. eigenvalues --   -0.51162  -0.44996  -0.42291  -0.39774  -0.34734
 Alpha  occ. eigenvalues --   -0.31946  -0.30492  -0.28120  -0.25449  -0.22336
 Alpha  occ. eigenvalues --   -0.20665  -0.20558  -0.20192  -0.16877  -0.15528
 Alpha  occ. eigenvalues --   -0.14861  -0.14302  -0.13694  -0.12673  -0.10318
 Alpha  occ. eigenvalues --   -0.10069  -0.07959  -0.06398  -0.03040   0.01930
 Alpha  occ. eigenvalues --    0.10240
 Alpha virt. eigenvalues --    0.17033   0.21316   0.25691   0.26568   0.29788
 Alpha virt. eigenvalues --    0.31198   0.32635   0.38977   0.43156   0.46030
 Alpha virt. eigenvalues --    0.48340   0.49641   0.52035   0.56521   0.57123

 Mulliken charges:
               1
     1  N   -0.283234
     2  C    0.035358
     3  C   -0.193534
     4  C   -0.085447
     5  C   -0.086116
     6  C   -0.122645
     7  C   -0.012322
     8  C   -0.045954
     9  C   -0.070783
    10  C   -0.111443
    11  C   -0.082766
    12  C   -0.033804
    13  N   -0.241289
    14  C    0.048167
    15  H    0.050465
    16  H    0.051743
    17  H    0.069965
    18  H    0.052124
    19  H    0.061516
 Sum of Mulliken charges =  -1.00000

 Dipole moment (field-independent basis, Debye):
    X=              5.8672    Y=              0.6334    Z=             -0.0001  Tot=              5.9013
 Quadrupole moment (field-independent basis, Debye-Ang):
   XX=           -130.8461   YY=            -86.3803   ZZ=            -74.1603
   XY=             13.8700   XZ=             -0.0010   YZ=             -0.0015

 Normal termination of Gaussian 09 at Tue Jun 15 11:14:54 2021.
