 Gaussian 09, Revision D.01,
 Gaussian 09:  ES64L-G09RevD.01 24-Apr-2013

 -------------------
 #N B3LYP/STO-3G OPT
 -------------------

 -----
 1Naph
 -----
 Symbolic Z-matrix:
 Charge = -1 Multiplicity = 1

 SCF Done:  E(RB3LYP) =  -562.500535754     A.U. after   20 cycles
 SCF Done:  E(RB3LYP) =  -562.523744482     A.U. after   16 cycles
 SCF Done:  E(RB3LYP) =  -562.523819666     A.U. after   17 cycles
 SCF Done:  E(RB3LYP) =  -562.525590245     A.U. after   18 cycles
 SCF Done:  E(RB3LYP) =  -562.526907035     A.U. after   14 cycles
 SCF Done:  E(RB3LYP) =  -562.526818454     A.U. after   14 cycles
 SCF Done:  E(RB3LYP) =  -562.526934375     A.U. after   14 cycles
 SCF Done:  E(RB3LYP) =  -562.526947550     A.U. after   10 cycles
 SCF Done:  E(RB3LYP) =  -562.526951385     A.U. after   11 cycles
 SCF Done:  E(RB3LYP) =  -562.526953342     A.U. after   11 cycles
 SCF Done:  E(RB3LYP) =  -562.526953729     A.U. after   11 cycles
 Optimization completed.
    -- Stationary point found.

                         Standard orientation:
 ---------------------------------------------------------------------
 Center     Atomic      Atomic             Coordinates (Angstroms)
 Number     Number       Type             X           Y           Z
 ---------------------------------------------------------------------
      1          7           0        4.083528   -0.899743    0.260947
      2          6           0        2.887448   -0.874961    0.144565
      3          6           0        1.443679   -0.895839   -0.030887
      4          6           0        0.755343   -2.097838   -0.336284
      5          6           0       -0.664834   -2.265121   -0.198588
      6          6           0       -1.366140   -1.046288   -0.085526
      7          6           0       -0.747396    0.288238   -0.140492
      8          6           0        0.692190    0.355956   -0.002001
      9          6           0        1.318593    1.642029    0.099634
     10          6           0        0.569554    2.814287    0.042743
     11          6           0       -0.844649    2.751921   -0.116065
     12          6           0       -1.481732    1.516342   -0.214150
     13          7           0       -3.992266   -1.139499    0.400842
     14          6           0       -2.810522   -1.086392    0.196486
     15          1           0        1.377347   -2.959240   -0.639098
     16          1           0        2.410737    1.685304    0.209283
     17          1           0        1.066973    3.790110    0.117054
     18          1           0       -1.429448    3.680391   -0.151453
     19          1           0       -2.573645    1.464128   -0.324924
 ---------------------------------------------------------------------

 The electronic state is 1-A.
 Alpha  occ. eigenvalues --  -13.96211 -13.94078  -9.87436  -9.87109  -9.87093
 Alpha  occ. eigenvalues --   -9.87000  -9.86951  -9.86805  -9.86793  -9.86554
 Alpha  occ. eigenvalues --   -9.84979  -9.84172  -9.83205  -9.71244  -0.70393
 Alpha  occ. eigenvalues --   -0.68612  -0.67101  -0.61630  -0.58087  -0.53919
 Alpha  occ. eigenvalues --   -0.52523  -0.43893  -0.42618  -0.41169  -0.34227
 Alpha  occ. eigenvalues --   -0.32393  -0.29817  -0.28156  -0.24766  -0.24219
 Alpha  occ. eigenvalues --   -0.21682  -0.20044  -0.18812  -0.16425  -0.15792
 Alpha  occ. eigenvalues --   -0.15220  -0.13763  -0.13124  -0.11600  -0.11162
 Alpha  occ. eigenvalues --   -0.09536  -0.08684  -0.06949  -0.02535   0.00634
 Alpha  occ. eigenvalues --    0.08365
 Alpha virt. eigenvalues --    0.17371   0.22799   0.23543   0.27717   0.29816
 Alpha virt. eigenvalues --    0.30162   0.35255   0.37373   0.44582   0.47059
 Alpha virt. eigenvalues --    0.47648   0.49566   0.52934   0.56553   0.57223

 Mulliken charges:
               1
     1  N   -0.261266
     2  C    0.034551
     3  C   -0.050496
     4  C   -0.104044
     5  C   -0.167811
     6  C   -0.072392
     7  C   -0.012907
     8  C   -0.012252
     9  C   -0.094722
    10  C   -0.101512
    11  C   -0.102159
    12  C   -0.093875
    13  N   -0.274700
    14  C    0.039093
    15  H    0.039155
    16  H    0.065063
    17  H    0.051630
    18  H    0.051498
    19  H    0.067146
 Sum of Mulliken charges =  -1.00000

 Dipole moment (field-independent basis, Debye):
    X=              1.2172    Y=              5.0755    Z=             -0.6185  Tot=              5.2560
 Quadrupole moment (field-independent basis, Debye-Ang):
   XX=           -122.1229   YY=            -88.7892   ZZ=            -74.7863
   XY=             -4.8457   XZ=              1.1262   YZ=              0.5381

 Normal termination of Gaussian 09 at Tue Jun 15 11:17:56 2021.
