 Gaussian 09, Revision D.01,
 Gaussian 09:  ES64L-G09RevD.01 24-Apr-2013

 -------------------
 #N B3LYP/STO-3G OPT
 -------------------

 -----
 2Naph
 -----
 Symbolic Z-matrix:
 Charge = -1 Multiplicity = 1

 SCF Done:  E(RB3LYP) =  -562.484472460     A.U. after   21 cycles
 SCF Done:  E(RB3LYP) =  -562.511410300     A.U. after   16 cycles
 SCF Done:  E(RB3LYP) =  -562.514873765     A.U. after   18 cycles
 SCF Done:  E(RB3LYP) =  -562.513028609     A.U. after   19 cycles
 SCF Done:  E(RB3LYP) =  -562.515354901     A.U. after   13 cycles
 SCF Done:  E(RB3LYP) =  -562.515686148     A.U. after   15 cycles
 SCF Done:  E(RB3LYP) =  -562.515810611     A.U. after   15 cycles
 SCF Done:  E(RB3LYP) =  -562.515884662     A.U. after   16 cycles
 SCF Done:  E(RB3LYP) =  -562.515941311     A.U. after   14 cycles
 SCF Done:  E(RB3LYP) =  -562.515953763     A.U. after   13 cycles
 SCF Done:  E(RB3LYP) =  -562.515955071     A.U. after   11 cycles
 SCF Done:  E(RB3LYP) =  -562.515955179     A.U. after   10 cycles
 Optimization completed.
    -- Stationary point found.

                         Standard orientation:
 ---------------------------------------------------------------------
 Center     Atomic      Atomic             Coordinates (Angstroms)
 Number     Number       Type             X           Y           Z
 ---------------------------------------------------------------------
      1          7           0        4.910293   -0.286587   -0.277260
      2          6           0        3.719797   -0.294642   -0.128537
      3          6           0        1.614090    0.941850    0.125200
      4          6           0        2.252431   -0.313507    0.064474
      5          6           0        1.604511   -1.620007    0.226731
      6          6           0        0.193973   -1.483409    0.215779
      7          6           0       -0.544723   -0.262030    0.049867
      8          6           0        0.184420    1.003201    0.075219
      9          6           0       -0.539488    2.241913    0.037687
     10          6           0       -1.930718    2.270609   -0.031688
     11          6           0       -2.665949    1.054720   -0.066671
     12          6           0       -1.997783   -0.183771   -0.044976
     13          7           0       -3.494897   -2.383013   -0.149222
     14          6           0       -2.799087   -1.406170   -0.100560
     15          1           0        2.180197    1.883225    0.179550
     16          1           0       -0.435490   -2.376517    0.374281
     17          1           0        0.029299    3.182258    0.059672
     18          1           0       -2.467608    3.227044   -0.057078
     19          1           0       -3.763014    1.078652   -0.106205
 ---------------------------------------------------------------------

 The electronic state is 1-A.
 Alpha  occ. eigenvalues --  -13.98733 -13.94769  -9.90203  -9.89266  -9.88459
 Alpha  occ. eigenvalues --   -9.87755  -9.87567  -9.86821  -9.86720  -9.85407
 Alpha  occ. eigenvalues --   -9.84826  -9.84517  -9.79594  -9.68889  -0.72223
 Alpha  occ. eigenvalues --   -0.68973  -0.67589  -0.61604  -0.58906  -0.54394
 Alpha  occ. eigenvalues --   -0.51046  -0.45602  -0.41850  -0.40636  -0.34663
 Alpha  occ. eigenvalues --   -0.32973  -0.30109  -0.27794  -0.24939  -0.23176
 Alpha  occ. eigenvalues --   -0.22008  -0.20634  -0.19359  -0.17224  -0.16152
 Alpha  occ. eigenvalues --   -0.15211  -0.14170  -0.13459  -0.13072  -0.11223
 Alpha  occ. eigenvalues --   -0.10058  -0.08851  -0.07365  -0.01817   0.01031
 Alpha  occ. eigenvalues --    0.10121
 Alpha virt. eigenvalues --    0.16181   0.22171   0.24175   0.26203   0.29965
 Alpha virt. eigenvalues --    0.31464   0.32306   0.38335   0.43674   0.44998
 Alpha virt. eigenvalues --    0.47070   0.49824   0.52419   0.55781   0.57081

 Mulliken charges:
               1
     1  N   -0.269434
     2  C    0.042149
     3  C   -0.100671
     4  C   -0.055389
     5  C   -0.185521
     6  C   -0.143108
     7  C   -0.010070
     8  C   -0.025575
     9  C   -0.087173
    10  C   -0.107194
    11  C   -0.088003
    12  C   -0.031607
    13  N   -0.238454
    14  C    0.052256
    15  H    0.047154
    16  H    0.030532
    17  H    0.056747
    18  H    0.052572
    19  H    0.060789
 Sum of Mulliken charges =  -1.00000

 Dipole moment (field-independent basis, Debye):
    X=             -4.8211    Y=              5.9329    Z=              0.0733  Tot=              7.6451
 Quadrupole moment (field-independent basis, Debye-Ang):
   XX=           -127.9119   YY=            -89.3916   ZZ=            -74.6014
   XY=             -2.0661   XZ=              0.8028   YZ=              0.4911

 Normal termination of Gaussian 09 at Tue Jun 15 11:14:51 2021.
