 Gaussian 09, Revision D.01,
 Gaussian 09:  ES64L-G09RevD.01 24-Apr-2013

 -------------------
 #N B3LYP/STO-3G OPT
 -------------------

 -----
 2Naph
 -----
 Symbolic Z-matrix:
 Charge = -1 Multiplicity = 1

 SCF Done:  E(RB3LYP) =  -562.487083186     A.U. after   28 cycles
 SCF Done:  E(RB3LYP) =  -562.519481517     A.U. after   14 cycles
 SCF Done:  E(RB3LYP) =  -562.523395208     A.U. after   13 cycles
 SCF Done:  E(RB3LYP) =  -562.523480810     A.U. after   13 cycles
 SCF Done:  E(RB3LYP) =  -562.523288657     A.U. after   15 cycles
 SCF Done:  E(RB3LYP) =  -562.523560647     A.U. after    9 cycles
 SCF Done:  E(RB3LYP) =  -562.523591306     A.U. after   11 cycles
 SCF Done:  E(RB3LYP) =  -562.523593335     A.U. after   10 cycles
 SCF Done:  E(RB3LYP) =  -562.523593849     A.U. after   10 cycles
 SCF Done:  E(RB3LYP) =  -562.523594247     A.U. after    9 cycles
 Optimization completed.
    -- Stationary point found.

                         Standard orientation:
 ---------------------------------------------------------------------
 Center     Atomic      Atomic             Coordinates (Angstroms)
 Number     Number       Type             X           Y           Z
 ---------------------------------------------------------------------
      1          7           0        4.776330   -1.541473    0.000169
      2          6           0        3.725385   -0.962232   -0.000093
      3          6           0        1.229871   -0.947570   -0.000043
      4          6           0        2.452057   -0.248732   -0.000058
      5          6           0        2.442168    1.194148   -0.000050
      6          6           0        1.236871    1.872893   -0.000022
      7          6           0       -0.024011    1.170140    0.000001
      8          6           0       -0.049011   -0.291771   -0.000019
      9          6           0       -1.259374   -1.164729   -0.000020
     10          6           0       -2.420980   -0.312003    0.000010
     11          6           0       -2.454661    1.130813    0.000056
     12          6           0       -1.277564    1.867092    0.000048
     13          7           0       -4.817349   -1.505179   -0.000012
     14          6           0       -3.744867   -0.967383   -0.000002
     15          1           0        1.236469   -2.047989   -0.000050
     16          1           0        3.396937    1.736180   -0.000066
     17          1           0        1.230339    2.972183   -0.000013
     18          1           0       -3.421785    1.658303    0.000099
     19          1           0       -1.290134    2.963896    0.000077
 ---------------------------------------------------------------------

 The electronic state is 1-A.
 Alpha  occ. eigenvalues --  -13.99239 -13.93318  -9.90287  -9.89790  -9.88368
 Alpha  occ. eigenvalues --   -9.87524  -9.87283  -9.86726  -9.85330  -9.84205
 Alpha  occ. eigenvalues --   -9.84054  -9.83571  -9.82785  -9.68411  -0.72839
 Alpha  occ. eigenvalues --   -0.67954  -0.67166  -0.62121  -0.57704  -0.54945
 Alpha  occ. eigenvalues --   -0.51649  -0.44389  -0.43320  -0.38806  -0.35912
 Alpha  occ. eigenvalues --   -0.32418  -0.31033  -0.26491  -0.25560  -0.23646
 Alpha  occ. eigenvalues --   -0.20966  -0.20485  -0.20081  -0.16526  -0.16456
 Alpha  occ. eigenvalues --   -0.15568  -0.14219  -0.13504  -0.12972  -0.10290
 Alpha  occ. eigenvalues --   -0.09850  -0.08184  -0.07167  -0.03060   0.01697
 Alpha  occ. eigenvalues --    0.10042
 Alpha virt. eigenvalues --    0.17821   0.20149   0.25540   0.26302   0.29324
 Alpha virt. eigenvalues --    0.30965   0.33138   0.38854   0.42924   0.45694
 Alpha virt. eigenvalues --    0.47856   0.50304   0.53054   0.54536   0.56406

 Mulliken charges:
               1
     1  N   -0.242719
     2  C    0.045194
     3  C   -0.061003
     4  C   -0.044705
     5  C   -0.089476
     6  C   -0.095875
     7  C   -0.018405
     8  C   -0.047376
     9  C   -0.190249
    10  C   -0.084095
    11  C   -0.087155
    12  C   -0.121275
    13  N   -0.281809
    14  C    0.035696
    15  H    0.078698
    16  H    0.060139
    17  H    0.053896
    18  H    0.049263
    19  H    0.041257
 Sum of Mulliken charges =  -1.00000

 Dipole moment (field-independent basis, Debye):
    X=              3.4045    Y=              5.5612    Z=             -0.0002  Tot=              6.5205
 Quadrupole moment (field-independent basis, Debye-Ang):
   XX=           -140.4219   YY=            -84.6609   ZZ=            -74.1569
   XY=             -4.5668   XZ=             -0.0018   YZ=              0.0004

 Normal termination of Gaussian 09 at Tue Jun 15 11:13:06 2021.
